19
Lattice="30.0 0.0 0.0 0.0 30.0 0.0 0.0 0.0 30.0" Properties=species:S:1:pos:R:3:forces:R:3 dimer_id=6 label=AA energy=-5415.64690544237 chargeA=0 energyA=-2172.76017265187 chargeB=0 energyB=-3242.85370885701 indexB=8 distance=4.943306927072935 distance_initial=4.943306927072935 inter_energy=-0.033023933489403134 pbc="T T T"
C        0.35461414      -0.41704167       0.51244509      -0.00028520       0.00662498       0.01222181
C       -0.35461335       0.41705530      -0.51244101       0.00294767      -0.00036839       0.00512706
H        1.35869515      -0.65435540       0.19864948       0.00295266       0.00513190       0.00466936
H        0.42267649       0.09688658       1.45807545       0.01153547      -0.00088940      -0.00202986
H       -0.16060001      -1.34856412       0.68520413      -0.00108063      -0.00062672      -0.00312149
H        0.16065139       1.34848849      -0.68540252       0.00371960       0.00378140       0.00179936
H       -0.42277316      -0.09712604      -1.45794480       0.00028261       0.00217641      -0.00039895
H       -1.35865917       0.65450805      -0.19863036      -0.00004401       0.00055172      -0.00025582
C        2.60109086       2.37848962       2.66448252      -0.00392115      -0.01030172      -0.00170194
C        2.65209080       2.77955167       4.10938135      -0.00472959       0.00075205       0.00121992
C        3.29096045       3.37021920       1.77473943      -0.00622218       0.00069873      -0.00527565
H        3.05526179       1.40532300       2.54254553      -0.00773041      -0.00522109      -0.00565221
H        1.57113704       2.26996540       2.35522247      -0.00058101      -0.00012511      -0.00777865
H        2.15310184       2.06213195       4.74111642       0.00047533      -0.00126903       0.00081442
H        2.17852677       3.73789270       4.26016665      -0.00014135       0.00129861       0.00063915
H        2.83592028       4.34552239       1.85929337      -0.00008179       0.00074562      -0.00018034
H        4.33080996       3.47344488       2.04577554       0.00129789      -0.00056508       0.00121846
H        3.67290924       2.86562433       4.44987453       0.00191570       0.00005390       0.00005579
H        3.24797871       3.07498125       0.73849297      -0.00030960      -0.00244879      -0.00137043
19
Lattice="30.0 0.0 0.0 0.0 30.0 0.0 0.0 0.0 30.0" Properties=species:S:1:pos:R:3:forces:R:3 dimer_id=6 label=AA energy=-5415.63394255099 chargeA=0 energyA=-2172.76017265187 chargeB=0 energyB=-3242.85370885701 indexB=8 distance=5.4223854081278295 distance_initial=4.943306927072935 inter_energy=-0.020061042109318805 pbc="T T T"
C        0.35461414      -0.41704167       0.51244509       0.00247509       0.00487258       0.00406173
C       -0.35461335       0.41705530      -0.51244101       0.00104439      -0.00068548       0.00283833
H        1.35869515      -0.65435540       0.19864948       0.00094528       0.00239256       0.00272313
H        0.42267649       0.09688658       1.45807545       0.00829868       0.00487079       0.00333639
H       -0.16060001      -1.34856412       0.68520413       0.00001661       0.00072400      -0.00078709
H        0.16065139       1.34848849      -0.68540252       0.00162826       0.00119240       0.00095876
H       -0.42277316      -0.09712604      -1.45794480       0.00018712       0.00155484       0.00017583
H       -1.35865917       0.65450805      -0.19863036       0.00022949       0.00041865      -0.00042818
C        2.87768695       2.65508571       2.94107861      -0.00128950      -0.00877856      -0.00230190
C        2.92868689       3.05614776       4.38597744      -0.00438190      -0.00028449       0.00074398
C        3.56755654       3.64681529       2.05133552      -0.00402798       0.00041179      -0.00396957
H        3.33185788       1.68191909       2.81914162      -0.00349154      -0.00272190      -0.00282847
H        1.84773313       2.54656149       2.63181856      -0.00464861      -0.00319243      -0.00582331
H        2.42969793       2.33872804       5.01771251       0.00043733      -0.00102236       0.00065517
H        2.45512286       4.01448879       4.53676274      -0.00016508       0.00108843       0.00050117
H        3.11251637       4.62211848       2.13588946      -0.00000792       0.00077651      -0.00020472
H        4.60740605       3.75004097       2.32237163       0.00098672      -0.00036042       0.00123839
H        3.94950533       3.14222042       4.72647062       0.00159172       0.00009714      -0.00039979
H        3.52457480       3.35157734       1.01508906       0.00017183      -0.00135404      -0.00048986
19
Lattice="30.0 0.0 0.0 0.0 30.0 0.0 0.0 0.0 30.0" Properties=species:S:1:pos:R:3:forces:R:3 dimer_id=6 label=AA energy=-5415.62480410249 chargeA=0 energyA=-2172.76017265187 chargeB=0 energyB=-3242.85370885701 indexB=8 distance=5.947893589540578 distance_initial=4.943306927072935 inter_energy=-0.010922593609848263 pbc="T T T"
C        0.35461414      -0.41704167       0.51244509       0.00186021       0.00276362       0.00121532
C       -0.35461335       0.41705530      -0.51244101       0.00024516      -0.00108285       0.00183452
H        1.35869515      -0.65435540       0.19864948       0.00018575       0.00098849       0.00168751
H        0.42267649       0.09688658       1.45807545       0.00424169       0.00311727       0.00209933
H       -0.16060001      -1.34856412       0.68520413       0.00050395       0.00119326      -0.00030773
H        0.16065139       1.34848849      -0.68540252       0.00061078       0.00002486       0.00048914
H       -0.42277316      -0.09712604      -1.45794480       0.00018580       0.00129809       0.00039306
H       -1.35865917       0.65450805      -0.19863036       0.00027641       0.00035759      -0.00043275
C        3.18108924       2.95848800       3.24448090      -0.00038426      -0.00534441      -0.00141024
C        3.23208918       3.35955005       4.68937973      -0.00329402      -0.00040325       0.00018774
C        3.87095883       3.95021758       2.35473781      -0.00245747       0.00032849      -0.00256843
H        3.63526017       1.98532138       3.12254391      -0.00157408      -0.00122583      -0.00133268
H        2.15113542       2.84996378       2.93522085      -0.00295895      -0.00174302      -0.00302023
H        2.73310022       2.64213033       5.32111480       0.00030417      -0.00099167       0.00059642
H        2.75852515       4.31789108       4.84016503      -0.00011232       0.00084192       0.00041652
H        3.41591866       4.92552077       2.43929175       0.00000961       0.00072108      -0.00026182
H        4.91080834       4.05344326       2.62577392       0.00076986      -0.00022348       0.00107805
H        4.25290762       3.44562271       5.02987291       0.00117762       0.00014504      -0.00048436
H        3.82797709       3.65497963       1.31849135       0.00041008      -0.00076522      -0.00017937
19
Lattice="30.0 0.0 0.0 0.0 30.0 0.0 0.0 0.0 30.0" Properties=species:S:1:pos:R:3:forces:R:3 dimer_id=6 label=AA energy=-5415.61958968095 chargeA=0 energyA=-2172.76017265187 chargeB=0 energyB=-3242.85370885701 indexB=8 distance=6.524331166104159 distance_initial=4.943306927072935 inter_energy=-0.005708172070171713 pbc="T T T"
C        0.35461414      -0.41704167       0.51244509       0.00108695       0.00150742       0.00030542
C       -0.35461335       0.41705530      -0.51244101      -0.00018846      -0.00131851       0.00130108
H        1.35869515      -0.65435540       0.19864948      -0.00012068       0.00026586       0.00108840
H        0.42267649       0.09688658       1.45807545       0.00189509       0.00145111       0.00062570
H       -0.16060001      -1.34856412       0.68520413       0.00074650       0.00139960      -0.00023721
H        0.16065139       1.34848849      -0.68540252       0.00012488      -0.00046404       0.00023036
H       -0.42277316      -0.09712604      -1.45794480       0.00022684       0.00118584       0.00051237
H       -1.35865917       0.65450805      -0.19863036       0.00031601       0.00034213      -0.00040023
C        3.51389563       3.29129439       3.57728729      -0.00047344      -0.00318855      -0.00058673
C        3.56489557       3.69235644       5.02218612      -0.00230870      -0.00029564      -0.00021237
C        4.20376522       4.28302397       2.68754420      -0.00143881       0.00047008      -0.00156424
H        3.96806656       2.31812777       3.45535030      -0.00070983      -0.00051043      -0.00061545
H        2.48394181       3.18277017       3.26802724      -0.00124873      -0.00071082      -0.00139141
H        3.06590661       2.97493672       5.65392119       0.00018299      -0.00100164       0.00056128
H        3.09133154       4.65069747       5.17297142      -0.00007079       0.00068412       0.00038460
H        3.74872505       5.25832716       2.77209814       0.00002656       0.00062156      -0.00031584
H        5.24361473       4.38624965       2.95858031       0.00060110      -0.00014348       0.00092914
H        4.58571401       3.77842910       5.36267930       0.00084677       0.00018419      -0.00047129
H        4.16078348       3.98778602       1.65129774       0.00050575      -0.00047879      -0.00014358
19
Lattice="30.0 0.0 0.0 0.0 30.0 0.0 0.0 0.0 30.0" Properties=species:S:1:pos:R:3:forces:R:3 dimer_id=6 label=AA energy=-5415.61681810694 chargeA=0 energyA=-2172.76017265187 chargeB=0 energyB=-3242.85370885701 indexB=8 distance=7.156633945684397 distance_initial=4.943306927072935 inter_energy=-0.0029365980594775465 pbc="T T T"
C        0.35461414      -0.41704167       0.51244509       0.00072413       0.00083120      -0.00010887
C       -0.35461335       0.41705530      -0.51244101      -0.00048584      -0.00140278       0.00091899
H        1.35869515      -0.65435540       0.19864948      -0.00026726      -0.00011257       0.00075002
H        0.42267649       0.09688658       1.45807545       0.00070813       0.00057655      -0.00008535
H       -0.16060001      -1.34856412       0.68520413       0.00083083       0.00143936      -0.00022819
H        0.16065139       1.34848849      -0.68540252      -0.00009971      -0.00065591       0.00012072
H       -0.42277316      -0.09712604      -1.45794480       0.00026560       0.00114356       0.00062588
H       -1.35865917       0.65450805      -0.19863036       0.00038155       0.00032867      -0.00038135
C        3.87895581       3.65635457       3.94234747      -0.00070881      -0.00207644      -0.00012383
C        3.92995575       4.05741662       5.38724630      -0.00161541      -0.00020952      -0.00035456
C        4.56882540       4.64808415       3.05260438      -0.00076497       0.00061561      -0.00102427
H        4.33312674       2.68318795       3.82041048      -0.00028925      -0.00021058      -0.00026471
H        2.84900199       3.54783035       3.63308742      -0.00041968      -0.00025733      -0.00065506
H        3.43096679       3.33999690       6.01898137       0.00010175      -0.00098732       0.00053027
H        3.45639172       5.01575765       5.53803160      -0.00006518       0.00061988       0.00038605
H        4.11378523       5.62338734       3.13715832       0.00003492       0.00055572      -0.00032398
H        5.60867491       4.75130983       3.32364049       0.00047321      -0.00009187       0.00083522
H        4.95077419       4.14348928       5.72773948       0.00064924       0.00022102      -0.00044460
H        4.52584366       4.35284620       2.01635792       0.00054676      -0.00032726      -0.00017239
19
Lattice="30.0 0.0 0.0 0.0 30.0 0.0 0.0 0.0 30.0" Properties=species:S:1:pos:R:3:forces:R:3 dimer_id=6 label=AA energy=-5415.61542677627 chargeA=0 energyA=-2172.76017265187 chargeB=0 energyB=-3242.85370885701 indexB=8 distance=7.850216076618642 distance_initial=4.943306927072935 inter_energy=-0.0015452673901563685 pbc="T T T"
C        0.35461414      -0.41704167       0.51244509       0.00055981       0.00052790      -0.00030524
C       -0.35461335       0.41705530      -0.51244101      -0.00064331      -0.00142100       0.00064657
H        1.35869515      -0.65435540       0.19864948      -0.00031849      -0.00029633       0.00056722
H        0.42267649       0.09688658       1.45807545       0.00010193       0.00015286      -0.00039220
H       -0.16060001      -1.34856412       0.68520413       0.00085419       0.00141203      -0.00022108
H        0.16065139       1.34848849      -0.68540252      -0.00020479      -0.00073343       0.00008731
H       -0.42277316      -0.09712604      -1.45794480       0.00029081       0.00113202       0.00072447
H       -1.35865917       0.65450805      -0.19863036       0.00043439       0.00031349      -0.00036396
C        4.27939564       4.05679440       4.34278730      -0.00086505      -0.00154599       0.00008065
C        4.33039558       4.45785645       5.78768613      -0.00125488      -0.00016770      -0.00032782
C        4.96926523       5.04852398       3.45304421      -0.00037182       0.00069218      -0.00082456
H        4.73356657       3.08362778       4.22085031      -0.00005887      -0.00010838      -0.00009878
H        3.24944182       3.94827018       4.03352725      -0.00008218      -0.00004778      -0.00034093
H        3.83140662       3.74043673       6.41942120       0.00005056      -0.00096926       0.00051047
H        3.85683155       5.41619748       5.93847143      -0.00007128       0.00058750       0.00038251
H        4.51422506       6.02382717       3.53759815       0.00003168       0.00052545      -0.00031495
H        6.00911474       5.15174966       3.72408032       0.00040793      -0.00006064       0.00080412
H        5.35121402       4.54392911       6.12817931       0.00058126       0.00024863      -0.00043499
H        4.92628349       4.75328603       2.41679775       0.00055812      -0.00024155      -0.00017880
19
Lattice="30.0 0.0 0.0 0.0 30.0 0.0 0.0 0.0 30.0" Properties=species:S:1:pos:R:3:forces:R:3 dimer_id=6 label=AA energy=-5415.61472926501 chargeA=0 energyA=-2172.76017265187 chargeB=0 energyB=-3242.85370885701 indexB=8 distance=8.611016420489385 distance_initial=4.943306927072935 inter_energy=-0.0008477561300423986 pbc="T T T"
C        0.35461414      -0.41704167       0.51244509       0.00046901       0.00037737      -0.00039175
C       -0.35461335       0.41705530      -0.51244101      -0.00071512      -0.00143199       0.00051814
H        1.35869515      -0.65435540       0.19864948      -0.00032796      -0.00037974       0.00047361
H        0.42267649       0.09688658       1.45807545      -0.00016028       0.00000516      -0.00051451
H       -0.16060001      -1.34856412       0.68520413       0.00086500       0.00139412      -0.00022018
H        0.16065139       1.34848849      -0.68540252      -0.00025441      -0.00076459       0.00007178
H       -0.42277316      -0.09712604      -1.45794480       0.00030391       0.00111693       0.00076479
H       -1.35865917       0.65450805      -0.19863036       0.00045661       0.00030510      -0.00035113
C        4.71864392       4.49604269       4.78203558      -0.00098253      -0.00129610       0.00014969
C        4.76964386       4.89710474       6.22693441      -0.00111038      -0.00015948      -0.00028952
C        5.40851351       5.48777227       3.89229249      -0.00019112       0.00071944      -0.00075506
H        5.17281485       3.52287607       4.66009859       0.00005695      -0.00009266      -0.00003355
H        3.68869010       4.38751847       4.47277553       0.00007333       0.00004637      -0.00020214
H        4.27065490       4.17968502       6.85866948       0.00002075      -0.00095677       0.00051317
H        4.29607983       5.85544577       6.37771971      -0.00007748       0.00056976       0.00037569
H        4.95347334       6.46307546       3.97684643       0.00002514       0.00051011      -0.00031104
H        6.44836302       5.59099795       4.16332860       0.00040476      -0.00003974       0.00080365
H        5.79046230       4.98317740       6.56742759       0.00058446       0.00026671      -0.00042112
H        5.36553177       5.19253432       2.85604603       0.00055935      -0.00019001      -0.00018052
19
Lattice="30.0 0.0 0.0 0.0 30.0 0.0 0.0 0.0 30.0" Properties=species:S:1:pos:R:3:forces:R:3 dimer_id=6 label=AA energy=-5415.61437077952 chargeA=0 energyA=-2172.76017265187 chargeB=0 energyB=-3242.85370885701 indexB=8 distance=9.445549416682985 distance_initial=4.943306927072935 inter_energy=-0.0004892706397185975 pbc="T T T"
C        0.35461414      -0.41704167       0.51244509       0.00043406       0.00030341      -0.00044121
C       -0.35461335       0.41705530      -0.51244101      -0.00075087      -0.00143138       0.00046776
H        1.35869515      -0.65435540       0.19864948      -0.00033103      -0.00041648       0.00042861
H        0.42267649       0.09688658       1.45807545      -0.00026314      -0.00002223      -0.00054828
H       -0.16060001      -1.34856412       0.68520413       0.00086904       0.00138329      -0.00021716
H        0.16065139       1.34848849      -0.68540252      -0.00027961      -0.00078076       0.00006636
H       -0.42277316      -0.09712604      -1.45794480       0.00031018       0.00109997       0.00077222
H       -1.35865917       0.65450805      -0.19863036       0.00046787       0.00030171      -0.00034297
C        5.20046177       4.97786054       5.26385343      -0.00106053      -0.00118120       0.00017129
C        5.25146171       5.37892259       6.70875226      -0.00105234      -0.00016382      -0.00026894
C        5.89033136       5.96959012       4.37411034      -0.00011204       0.00072768      -0.00073403
H        5.65463270       4.00469392       5.14191644       0.00011434      -0.00009190      -0.00000660
H        4.17050795       4.86933632       4.95459338       0.00014198       0.00007147      -0.00015208
H        4.75247275       4.66150287       7.34048733       0.00000295      -0.00094706       0.00051932
H        4.77789768       6.33726362       6.85953756      -0.00008389       0.00055872       0.00036969
H        5.43529119       6.94489331       4.45866428       0.00001933       0.00049850      -0.00030989
H        6.93018087       6.07281580       4.64514645       0.00041786      -0.00002712       0.00081016
H        6.27228015       5.46499525       7.04924544       0.00060068       0.00027804      -0.00040836
H        5.84734962       5.67435217       3.33786388       0.00055515      -0.00016083      -0.00017587
19
Lattice="30.0 0.0 0.0 0.0 30.0 0.0 0.0 0.0 30.0" Properties=species:S:1:pos:R:3:forces:R:3 dimer_id=6 label=AA energy=-5415.61417410452 chargeA=0 energyA=-2172.76017265187 chargeB=0 energyB=-3242.85370885701 indexB=8 distance=10.360960819784651 distance_initial=4.943306927072935 inter_energy=-0.0002925956400758878 pbc="T T T"
C        0.35461414      -0.41704167       0.51244509       0.00042022       0.00026741      -0.00046849
C       -0.35461335       0.41705530      -0.51244101      -0.00076659      -0.00142504       0.00044492
H        1.35869515      -0.65435540       0.19864948      -0.00033254      -0.00043195       0.00040687
H        0.42267649       0.09688658       1.45807545      -0.00030845      -0.00002581      -0.00056073
H       -0.16060001      -1.34856412       0.68520413       0.00086808       0.00137471      -0.00021378
H        0.16065139       1.34848849      -0.68540252      -0.00029308      -0.00079123       0.00006800
H       -0.42277316      -0.09712604      -1.45794480       0.00031335       0.00108680       0.00077092
H       -1.35865917       0.65450805      -0.19863036       0.00047308       0.00030171      -0.00033811
C        5.72897479       5.50637356       5.79236645      -0.00110874      -0.00112181       0.00017759
C        5.77997473       5.90743561       7.23726528      -0.00102115      -0.00016908      -0.00025543
C        6.41884438       6.49810314       4.90262336      -0.00007478       0.00072167      -0.00073259
H        6.18314572       4.53320694       5.67042946       0.00014690      -0.00009474       0.00000521
H        4.69902097       5.39784934       5.48310640       0.00017540       0.00008138      -0.00013359
H        5.28098577       5.19001589       7.86900035      -0.00000902      -0.00094140       0.00052327
H        5.30641070       6.86577664       7.38805058      -0.00008819       0.00055358       0.00036695
H        5.96380421       7.47340633       4.98717730       0.00001415       0.00049286      -0.00030918
H        7.45869389       6.60132882       5.17365947       0.00043049      -0.00001893       0.00081615
H        6.80079317       5.99350827       7.57775846       0.00061287       0.00028569      -0.00039988
H        6.37586264       6.20286519       3.86637690       0.00054803      -0.00014583      -0.00016811
19
Lattice="30.0 0.0 0.0 0.0 30.0 0.0 0.0 0.0 30.0" Properties=species:S:1:pos:R:3:forces:R:3 dimer_id=6 label=AA energy=-5415.61406192192 chargeA=0 energyA=-2172.76017265187 chargeB=0 energyB=-3242.85370885701 indexB=8 distance=11.36508892757449 distance_initial=4.943306927072935 inter_energy=-0.00018041304019789095 pbc="T T T"
C        0.35461414      -0.41704167       0.51244509       0.00041126       0.00024698      -0.00048198
C       -0.35461335       0.41705530      -0.51244101      -0.00077586      -0.00142188       0.00043245
H        1.35869515      -0.65435540       0.19864948      -0.00033285      -0.00043795       0.00039684
H        0.42267649       0.09688658       1.45807545      -0.00032854      -0.00002607      -0.00057034
H       -0.16060001      -1.34856412       0.68520413       0.00086504       0.00136804      -0.00021293
H        0.16065139       1.34848849      -0.68540252      -0.00030100      -0.00079851       0.00007167
H       -0.42277316      -0.09712604      -1.45794480       0.00031469       0.00107747       0.00076679
H       -1.35865917       0.65450805      -0.19863036       0.00047497       0.00030222      -0.00033598
C        6.30870842       6.08610719       6.37210009      -0.00113606      -0.00108669       0.00018500
C        6.35970836       6.48716924       7.81699892      -0.00100517      -0.00017321      -0.00024955
C        6.99857801       7.07783677       5.48235700      -0.00005179       0.00072198      -0.00073114
H        6.76287935       5.11294057       6.25016310       0.00016394      -0.00009828       0.00000931
H        5.27875460       5.97758297       6.06284004       0.00019446       0.00008550      -0.00012650
H        5.86071940       5.76974952       8.44873399      -0.00001701      -0.00093684       0.00052629
H        5.88614433       7.44551027       7.96778422      -0.00009046       0.00054953       0.00036551
H        6.54353784       8.05313996       5.56691094       0.00001095       0.00048827      -0.00030985
H        8.03842752       7.18106245       5.75339311       0.00043999      -0.00001429       0.00082085
H        7.38052680       6.57324190       8.15749210       0.00062178       0.00029075      -0.00039472
H        6.95559627       6.78259882       4.44611054       0.00054161      -0.00013702      -0.00016172
