24
Lattice="30.0 0.0 0.0 0.0 30.0 0.0 0.0 0.0 30.0" Properties=species:S:1:pos:R:3:forces:R:3 dimer_id=2 label=CA energy=-9914.71851780182 chargeA=1 energyA=-7741.84350556276 chargeB=0 energyB=-2172.76019496964 indexB=16 distance=4.215119677324809 distance_initial=4.215119677324809 inter_energy=-0.11481726942110981 pbc="T T T"
C        0.67965768      -1.16354570       0.58047567      -0.01183448       0.00669855       0.00721023
C        1.98940224      -1.77732433       0.20889222      -0.00992492       0.00513530       0.00110197
C       -0.64675357       0.71504084      -0.19387556       0.04234075      -0.00650117       0.04200633
N        0.41342565      -0.03409450      -0.27510494       0.00005844      -0.02808035      -0.00790972
N       -1.55790438       0.46041383       0.70851908      -0.01450388       0.00358521       0.00802263
N       -0.80996938       1.72656637      -1.01089963      -0.00316935       0.02738050      -0.01565346
H       -0.11408716      -1.88714149       0.46940678      -0.00450734      -0.00683236      -0.00850137
H        0.70460903      -0.83106292       1.60748424       0.00066164       0.01390128       0.00246736
H        2.79545355      -1.07218887       0.32865409       0.00742950       0.00662718       0.00222987
H        1.97753784      -2.12877907      -0.80978129       0.00364059       0.00228970      -0.00331393
H        1.08707915       0.18089689      -0.97133256      -0.00030785       0.00783014       0.01127183
H       -1.45727414      -0.29981090       1.33469929       0.01249872       0.00810177       0.00367927
H       -2.37209857       1.01836350       0.79120734       0.00727557      -0.00192024      -0.00132649
H       -0.13609546       1.94268535      -1.70363666       0.00014698      -0.00304764       0.00947362
H       -1.61371886       2.30302223      -0.96410536       0.00457765      -0.00562702       0.00217688
H        2.19013522      -2.61986925       0.84635344      -0.00041879       0.00121251       0.00116972
C        1.90237877       1.91370376       2.53243225      -0.02172221      -0.01050005       0.03640423
C        2.96482649       2.95349294       2.33477073       0.02709487       0.00356141      -0.03515681
H        1.92023990       1.52010744       3.53628490      -0.01174774      -0.00254767      -0.01340678
H        0.91851080       2.32034147       2.36033474      -0.06582307       0.04489753       0.01397897
H        2.03408771       1.08438657       1.85579106       0.06986599      -0.05211253      -0.04920991
H        2.83308379       3.78281096       3.01139534      -0.00844656      -0.04223977      -0.01962760
H        3.94871264       2.54687940       2.50684173      -0.03620601       0.00799482       0.00503090
H        2.94691681       3.34712777       1.33093104       0.01302150       0.02019290       0.00788227
24
Lattice="30.0 0.0 0.0 0.0 30.0 0.0 0.0 0.0 30.0" Properties=species:S:1:pos:R:3:forces:R:3 dimer_id=2 label=CA energy=-9914.68095484559 chargeA=1 energyA=-7741.84350556276 chargeB=0 energyB=-2172.76019496964 indexB=16 distance=4.685436129036406 distance_initial=4.215119677324809 inter_energy=-0.07725431318976916 pbc="T T T"
C        0.67965768      -1.16354570       0.58047567       0.00114521       0.01256781       0.01279654
C        1.98940224      -1.77732433       0.20889222      -0.00521902       0.00278929      -0.00044149
C       -0.64675357       0.71504084      -0.19387556       0.02830514      -0.00137541       0.03035326
N        0.41342565      -0.03409450      -0.27510494       0.00456781      -0.00956658       0.00061629
N       -1.55790438       0.46041383       0.70851908      -0.01229112       0.00121242       0.00325376
N       -0.80996938       1.72656637      -1.01089963      -0.00519069       0.01734114      -0.01413956
H       -0.11408716      -1.88714149       0.46940678      -0.00210446      -0.00362903      -0.00475762
H        0.70460903      -0.83106292       1.60748424       0.00714767       0.01572621       0.00540271
H        2.79545355      -1.07218887       0.32865409       0.00346939       0.00462151       0.00227150
H        1.97753784      -2.12877907      -0.80978129       0.00193081       0.00066280      -0.00235492
H        1.08707915       0.18089689      -0.97133256       0.00031909       0.00574848       0.00776498
H       -1.45727414      -0.29981090       1.33469929       0.00843907       0.00639414       0.00260422
H       -2.37209857       1.01836350       0.79120734       0.00651727      -0.00137133      -0.00041825
H       -0.13609546       1.94268535      -1.70363666       0.00079173      -0.00177041       0.00779429
H       -1.61371886       2.30302223      -0.96410536       0.00402762      -0.00395458       0.00242836
H        2.19013522      -2.61986925       0.84635344      -0.00045535       0.00084008       0.00081806
C        2.17391610       2.18524109       2.80396958      -0.02980361       0.00833580       0.04132673
C        3.23636382       3.22503027       2.60630806       0.02516950       0.00126334      -0.03421552
H        2.19177723       1.79164477       3.80782223      -0.00986771      -0.00509148      -0.01632383
H        1.19004813       2.59187880       2.63187207      -0.05030415       0.04239444       0.01658306
H        2.30562504       1.35592390       2.12732839       0.05184661      -0.07990947      -0.05720774
H        3.10462112       4.05434829       3.28293267      -0.00844187      -0.03845777      -0.01657056
H        4.22024997       2.81841673       2.77837906      -0.03199641       0.00746218       0.00446491
H        3.21845414       3.61866510       1.60246837       0.01199748       0.01776639       0.00795083
24
Lattice="30.0 0.0 0.0 0.0 30.0 0.0 0.0 0.0 30.0" Properties=species:S:1:pos:R:3:forces:R:3 dimer_id=2 label=CA energy=-9914.64793869218 chargeA=1 energyA=-7741.84350556276 chargeB=0 energyB=-2172.76019496964 indexB=16 distance=5.208229753820991 distance_initial=4.215119677324809 inter_energy=-0.044238159780434216 pbc="T T T"
C        0.67965768      -1.16354570       0.58047567       0.00173279       0.00876779       0.00972521
C        1.98940224      -1.77732433       0.20889222      -0.00289511       0.00067411      -0.00130590
C       -0.64675357       0.71504084      -0.19387556       0.01661786      -0.00070651       0.01953113
N        0.41342565      -0.03409450      -0.27510494       0.00136592      -0.00512650       0.00090853
N       -1.55790438       0.46041383       0.70851908      -0.00895814      -0.00014847      -0.00073509
N       -0.80996938       1.72656637      -1.01089963      -0.00505534       0.00973219      -0.01062561
H       -0.11408716      -1.88714149       0.46940678      -0.00047548      -0.00167239      -0.00289748
H        0.70460903      -0.83106292       1.60748424       0.00533092       0.00926413       0.00291445
H        2.79545355      -1.07218887       0.32865409       0.00144634       0.00324967       0.00175816
H        1.97753784      -2.12877907      -0.80978129       0.00098353       0.00017092      -0.00175255
H        1.08707915       0.18089689      -0.97133256       0.00015021       0.00398207       0.00504223
H       -1.45727414      -0.29981090       1.33469929       0.00572911       0.00461336       0.00163524
H       -2.37209857       1.01836350       0.79120734       0.00534623      -0.00092207       0.00006728
H       -0.13609546       1.94268535      -1.70363666       0.00115510      -0.00097445       0.00601997
H       -1.61371886       2.30302223      -0.96410536       0.00326073      -0.00256520       0.00240407
H        2.19013522      -2.61986925       0.84635344      -0.00052130       0.00063637       0.00060089
C        2.47575114       2.48707613       3.10580462      -0.02244521       0.01540287       0.03851855
C        3.53819886       3.52686531       2.90814310       0.02090480       0.00126177      -0.02773708
H        2.49361227       2.09347981       4.10965727      -0.00804166      -0.00444110      -0.01522019
H        1.49188317       2.89371384       2.93370711      -0.03876545       0.03878866       0.01784672
H        2.60746008       1.65775894       2.42916343       0.04725234      -0.06837389      -0.04269768
H        3.40645616       4.35618333       3.58476771      -0.00674594      -0.03373609      -0.01476908
H        4.52208501       3.12025177       3.08021410      -0.02788990       0.00676650       0.00384253
H        3.52028918       3.92050014       1.90430341       0.01051765       0.01535625       0.00692571
24
Lattice="30.0 0.0 0.0 0.0 30.0 0.0 0.0 0.0 30.0" Properties=species:S:1:pos:R:3:forces:R:3 dimer_id=2 label=CA energy=-9914.6272776928 chargeA=1 energyA=-7741.84350556276 chargeB=0 energyB=-2172.76019496964 indexB=16 distance=5.789355870677106 distance_initial=4.215119677324809 inter_energy=-0.023577160400236608 pbc="T T T"
C        0.67965768      -1.16354570       0.58047567       0.00105848       0.00580232       0.00655176
C        1.98940224      -1.77732433       0.20889222      -0.00160778      -0.00043320      -0.00174774
C       -0.64675357       0.71504084      -0.19387556       0.00927580      -0.00063375       0.01214954
N        0.41342565      -0.03409450      -0.27510494      -0.00125579      -0.00384391       0.00074341
N       -1.55790438       0.46041383       0.70851908      -0.00601694      -0.00031054      -0.00284411
N       -0.80996938       1.72656637      -1.01089963      -0.00439667       0.00482044      -0.00733462
H       -0.11408716      -1.88714149       0.46940678       0.00006083      -0.00082125      -0.00188405
H        0.70460903      -0.83106292       1.60748424       0.00311824       0.00465187       0.00089853
H        2.79545355      -1.07218887       0.32865409       0.00048483       0.00226320       0.00121576
H        1.97753784      -2.12877907      -0.80978129       0.00045454       0.00009438      -0.00144294
H        1.08707915       0.18089689      -0.97133256      -0.00006602       0.00266769       0.00328089
H       -1.45727414      -0.29981090       1.33469929       0.00406271       0.00308399       0.00095369
H       -2.37209857       1.01836350       0.79120734       0.00420223      -0.00062448       0.00022311
H       -0.13609546       1.94268535      -1.70363666       0.00128692      -0.00056619       0.00459528
H       -1.61371886       2.30302223      -0.96410536       0.00254076      -0.00163760       0.00221743
H        2.19013522      -2.61986925       0.84635344      -0.00050220       0.00043348       0.00049142
C        2.81126446       2.82258945       3.44131794      -0.01478260       0.01546455       0.03227223
C        3.87371218       3.86237863       3.24365642       0.01686250       0.00171112      -0.02101163
H        2.82912559       2.42899313       4.44517059      -0.00646124      -0.00310747      -0.01294693
H        1.82739649       3.22922716       3.26922043      -0.03065121       0.03425552       0.01731383
H        2.94297340       1.99327226       2.76467675       0.04233675      -0.05322605      -0.02938827
H        3.74196948       4.69169665       3.92028103      -0.00489357      -0.02914422      -0.01333940
H        4.85759833       3.45576509       3.41572742      -0.02402639       0.00608943       0.00328224
H        3.85580250       4.25601346       2.23981673       0.00891583       0.01301069       0.00575057
24
Lattice="30.0 0.0 0.0 0.0 30.0 0.0 0.0 0.0 30.0" Properties=species:S:1:pos:R:3:forces:R:3 dimer_id=2 label=CA energy=-9914.61546752508 chargeA=1 energyA=-7741.84350556276 chargeB=0 energyB=-2172.76019496964 indexB=16 distance=6.435323145488418 distance_initial=4.215119677324809 inter_energy=-0.011766992680350086 pbc="T T T"
C        0.67965768      -1.16354570       0.58047567       0.00075237       0.00419421       0.00447567
C        1.98940224      -1.77732433       0.20889222      -0.00088728      -0.00092514      -0.00199705
C       -0.64675357       0.71504084      -0.19387556       0.00505207      -0.00060250       0.00757501
N        0.41342565      -0.03409450      -0.27510494      -0.00214399      -0.00318103       0.00099677
N       -1.55790438       0.46041383       0.70851908      -0.00403672      -0.00003256      -0.00333356
N       -0.80996938       1.72656637      -1.01089963      -0.00371862       0.00222471      -0.00505295
H       -0.11408716      -1.88714149       0.46940678       0.00015683      -0.00051083      -0.00129787
H        0.70460903      -0.83106292       1.60748424       0.00178582       0.00234447       0.00005273
H        2.79545355      -1.07218887       0.32865409       0.00012107       0.00150394       0.00072826
H        1.97753784      -2.12877907      -0.80978129       0.00014417       0.00016241      -0.00120248
H        1.08707915       0.18089689      -0.97133256      -0.00015131       0.00176928       0.00210210
H       -1.45727414      -0.29981090       1.33469929       0.00296698       0.00205306       0.00046291
H       -2.37209857       1.01836350       0.79120734       0.00325157      -0.00048746       0.00019468
H       -0.13609546       1.94268535      -1.70363666       0.00127339      -0.00041072       0.00354501
H       -1.61371886       2.30302223      -0.96410536       0.00191476      -0.00110479       0.00194277
H        2.19013522      -2.61986925       0.84635344      -0.00047304       0.00029291       0.00043342
C        3.18421384       3.19553883       3.81426732      -0.00942198       0.01313608       0.02599061
C        4.24666156       4.23532801       3.61660580       0.01357209       0.00206088      -0.01543230
H        3.20207497       2.80194251       4.81811997      -0.00503038      -0.00186301      -0.01049067
H        2.20034587       3.60217654       3.64216981      -0.02465597       0.02925057       0.01554378
H        3.31592278       2.36622164       3.13762613       0.03598690      -0.04128107      -0.02074427
H        4.11491886       5.06464603       4.29323041      -0.00333554      -0.02489717      -0.01193983
H        5.23054771       3.82871447       3.78867680      -0.02046121       0.00549390       0.00280163
H        4.22875188       4.62896284       2.61276611       0.00733802       0.01080986       0.00464562
24
Lattice="30.0 0.0 0.0 0.0 30.0 0.0 0.0 0.0 30.0" Properties=species:S:1:pos:R:3:forces:R:3 dimer_id=2 label=CA energy=-9914.60879927362 chargeA=1 energyA=-7741.84350556276 chargeB=0 energyB=-2172.76019496964 indexB=16 distance=7.153366423760175 distance_initial=4.215119677324809 inter_energy=-0.00509874121962639 pbc="T T T"
C        0.67965768      -1.16354570       0.58047567       0.00058274       0.00322350       0.00318945
C        1.98940224      -1.77732433       0.20889222      -0.00052501      -0.00111425      -0.00208575
C       -0.64675357       0.71504084      -0.19387556       0.00275802      -0.00052899       0.00481676
N        0.41342565      -0.03409450      -0.27510494      -0.00197938      -0.00286817       0.00141057
N       -1.55790438       0.46041383       0.70851908      -0.00306333       0.00034470      -0.00277792
N       -0.80996938       1.72656637      -1.01089963      -0.00313532       0.00128878      -0.00368630
H       -0.11408716      -1.88714149       0.46940678       0.00014862      -0.00037979      -0.00094510
H        0.70460903      -0.83106292       1.60748424       0.00108600       0.00118120      -0.00018873
H        2.79545355      -1.07218887       0.32865409       0.00006274       0.00102835       0.00038549
H        1.97753784      -2.12877907      -0.80978129       0.00000599       0.00023999      -0.00101558
H        1.08707915       0.18089689      -0.97133256      -0.00014484       0.00123049       0.00131733
H       -1.45727414      -0.29981090       1.33469929       0.00228383       0.00140770       0.00006839
H       -2.37209857       1.01836350       0.79120734       0.00254889      -0.00047316       0.00006945
H       -0.13609546       1.94268535      -1.70363666       0.00120717      -0.00038972       0.00281988
H       -1.61371886       2.30302223      -0.96410536       0.00143345      -0.00082417       0.00168215
H        2.19013522      -2.61986925       0.84635344      -0.00043798       0.00022497       0.00039726
C        3.59877632       3.61010131       4.22882980      -0.00623583       0.01053203       0.02068002
C        4.66122404       4.64989049       4.03116828       0.01096757       0.00210740      -0.01130996
H        3.61663745       3.21650499       5.23268245      -0.00374070      -0.00090642      -0.00824656
H        2.61490835       4.01673902       4.05673229      -0.01991566       0.02439118       0.01324327
H        3.73048526       2.78078412       3.55218861       0.02949989      -0.03253906      -0.01550740
H        4.52948134       5.47920851       4.70779289      -0.00212320      -0.02101389      -0.01043654
H        5.64511019       4.24327695       4.20323928      -0.01722300       0.00496515       0.00240892
H        4.64331436       5.04352532       3.02732859       0.00593934       0.00887218       0.00371089
24
Lattice="30.0 0.0 0.0 0.0 30.0 0.0 0.0 0.0 30.0" Properties=species:S:1:pos:R:3:forces:R:3 dimer_id=2 label=CA energy=-9914.60486608366 chargeA=1 energyA=-7741.84350556276 chargeB=0 energyB=-2172.76019496964 indexB=16 distance=7.951527842558522 distance_initial=4.215119677324809 inter_energy=-0.0011655512607831042 pbc="T T T"
C        0.67965768      -1.16354570       0.58047567       0.00045957       0.00258664       0.00237664
C        1.98940224      -1.77732433       0.20889222      -0.00036212      -0.00116906      -0.00208788
C       -0.64675357       0.71504084      -0.19387556       0.00149536      -0.00040536       0.00323348
N        0.41342565      -0.03409450      -0.27510494      -0.00148758      -0.00264570       0.00185464
N       -1.55790438       0.46041383       0.70851908      -0.00254944       0.00066518      -0.00210102
N       -0.80996938       1.72656637      -1.01089963      -0.00273019       0.00097641      -0.00286243
H       -0.11408716      -1.88714149       0.46940678       0.00012917      -0.00032343      -0.00074936
H        0.70460903      -0.83106292       1.60748424       0.00071451       0.00062651      -0.00016953
H        2.79545355      -1.07218887       0.32865409       0.00009622       0.00073915       0.00015661
H        1.97753784      -2.12877907      -0.80978129      -0.00004982       0.00027663      -0.00090042
H        1.08707915       0.18089689      -0.97133256      -0.00014054       0.00092124       0.00082334
H       -1.45727414      -0.29981090       1.33469929       0.00185408       0.00098975      -0.00023724
H       -2.37209857       1.01836350       0.79120734       0.00207759      -0.00050561      -0.00007325
H       -0.13609546       1.94268535      -1.70363666       0.00113502      -0.00041710       0.00233513
H       -1.61371886       2.30302223      -0.96410536       0.00109789      -0.00068663       0.00146627
H        2.19013522      -2.61986925       0.84635344      -0.00042173       0.00016811       0.00034398
C        4.05959503       4.07092002       4.68964851      -0.00425232       0.00822688       0.01633244
C        5.12204275       5.11070920       4.49198699       0.00885322       0.00188398      -0.00830151
H        4.07745616       3.67732370       5.69350116      -0.00267636      -0.00026688      -0.00633247
H        3.07572706       4.47755773       4.51755100      -0.01610696       0.01988136       0.01081131
H        4.19130397       3.24160283       4.01300732       0.02365851      -0.02569154      -0.01199506
H        4.99030005       5.94002722       5.16861160      -0.00122887      -0.01745861      -0.00890637
H        6.10592890       4.70409566       4.66405799      -0.01428342       0.00443769       0.00206331
H        5.10413307       5.50434403       3.48814730       0.00471819       0.00719038       0.00291939
24
Lattice="30.0 0.0 0.0 0.0 30.0 0.0 0.0 0.0 30.0" Properties=species:S:1:pos:R:3:forces:R:3 dimer_id=2 label=CA energy=-9914.60243104259 chargeA=1 energyA=-7741.84350556276 chargeB=0 energyB=-2172.76019496964 indexB=16 distance=8.838746879831996 distance_initial=4.215119677324809 inter_energy=0.0012694898105110042 pbc="T T T"
C        0.67965768      -1.16354570       0.58047567       0.00038233       0.00223271       0.00187223
C        1.98940224      -1.77732433       0.20889222      -0.00032943      -0.00120873      -0.00205631
C       -0.64675357       0.71504084      -0.19387556       0.00079878      -0.00031347       0.00229461
N        0.41342565      -0.03409450      -0.27510494      -0.00111164      -0.00249122       0.00221049
N       -1.55790438       0.46041383       0.70851908      -0.00222480       0.00090789      -0.00159199
N       -0.80996938       1.72656637      -1.01089963      -0.00244588       0.00086508      -0.00230103
H       -0.11408716      -1.88714149       0.46940678       0.00013316      -0.00029188      -0.00064003
H        0.70460903      -0.83106292       1.60748424       0.00051954       0.00038504      -0.00011897
H        2.79545355      -1.07218887       0.32865409       0.00016406       0.00060933       0.00002409
H        1.97753784      -2.12877907      -0.80978129      -0.00006826       0.00028767      -0.00083495
H        1.08707915       0.18089689      -0.97133256      -0.00015117       0.00072971       0.00052046
H       -1.45727414      -0.29981090       1.33469929       0.00158347       0.00071489      -0.00045376
H       -2.37209857       1.01836350       0.79120734       0.00176986      -0.00055065      -0.00019388
H       -0.13609546       1.94268535      -1.70363666       0.00108234      -0.00045091       0.00201596
H       -1.61371886       2.30302223      -0.96410536       0.00086995      -0.00062415       0.00130182
H        2.19013522      -2.61986925       0.84635344      -0.00041448       0.00012530       0.00028963
C        4.57183118       4.58315617       5.20188466      -0.00299256       0.00646878       0.01282241
C        5.63427890       5.62294535       5.00422314       0.00709359       0.00149140      -0.00612086
H        4.58969231       4.18955985       6.20573731      -0.00181757       0.00012553      -0.00477386
H        3.58796321       4.98979388       5.02978715      -0.01291992       0.01589647       0.00860598
H        4.70354012       3.75383898       4.52524347       0.01864893      -0.02027518      -0.00943818
H        5.50253620       6.45226337       5.68084775      -0.00059576      -0.01428168      -0.00744532
H        6.61816505       5.21633181       5.17629414      -0.01163967       0.00390110       0.00176407
H        5.61636922       6.01658018       4.00038345       0.00366514       0.00574698       0.00224740
24
Lattice="30.0 0.0 0.0 0.0 30.0 0.0 0.0 0.0 30.0" Properties=species:S:1:pos:R:3:forces:R:3 dimer_id=2 label=CA energy=-9914.60086643782 chargeA=1 energyA=-7741.84350556276 chargeB=0 energyB=-2172.76019496964 indexB=16 distance=9.824960414986663 distance_initial=4.215119677324809 inter_energy=0.002834094579156954 pbc="T T T"
C        0.67965768      -1.16354570       0.58047567       0.00032968       0.00203683       0.00156495
C        1.98940224      -1.77732433       0.20889222      -0.00033857      -0.00124624      -0.00202405
C       -0.64675357       0.71504084      -0.19387556       0.00042428      -0.00025108       0.00171275
N        0.41342565      -0.03409450      -0.27510494      -0.00088540      -0.00239125       0.00244188
N       -1.55790438       0.46041383       0.70851908      -0.00203447       0.00106573      -0.00123950
N       -0.80996938       1.72656637      -1.01089963      -0.00226133       0.00081023      -0.00193791
H       -0.11408716      -1.88714149       0.46940678       0.00014574      -0.00027234      -0.00057239
H        0.70460903      -0.83106292       1.60748424       0.00041233       0.00027900      -0.00008116
H        2.79545355      -1.07218887       0.32865409       0.00022595       0.00056138      -0.00005588
H        1.97753784      -2.12877907      -0.80978129      -0.00006634       0.00029787      -0.00079238
H        1.08707915       0.18089689      -0.97133256      -0.00016039       0.00061548       0.00033381
H       -1.45727414      -0.29981090       1.33469929       0.00141913       0.00054555      -0.00059923
H       -2.37209857       1.01836350       0.79120734       0.00157485      -0.00059319      -0.00028675
H       -0.13609546       1.94268535      -1.70363666       0.00104669      -0.00047954       0.00181329
H       -1.61371886       2.30302223      -0.96410536       0.00072082      -0.00059644       0.00118522
H        2.19013522      -2.61986925       0.84635344      -0.00040768       0.00009347       0.00025275
C        5.14122183       5.15254682       5.77127531      -0.00217873       0.00513372       0.00997178
C        6.20366955       6.19233600       5.57361379       0.00563916       0.00107737      -0.00451058
H        5.15908296       4.75895050       6.77512796      -0.00114366       0.00034836      -0.00353303
H        4.15735386       5.55918453       5.59917780      -0.01024279       0.01248668       0.00672119
H        5.27293077       4.32322963       5.09463412       0.01447427      -0.01591645      -0.00744112
H        6.07192685       7.02165402       6.25023840      -0.00015237      -0.01150949      -0.00611227
H        7.18755570       5.78572246       5.74568479      -0.00931773       0.00338183       0.00150418
H        6.18575987       6.58597083       4.56977410       0.00277655       0.00452249       0.00168446
24
Lattice="30.0 0.0 0.0 0.0 30.0 0.0 0.0 0.0 30.0" Properties=species:S:1:pos:R:3:forces:R:3 dimer_id=2 label=CA energy=-9914.59985304612 chargeA=1 energyA=-7741.84350556276 chargeB=0 energyB=-2172.76019496964 indexB=16 distance=10.921214117073571 distance_initial=4.215119677324809 inter_energy=0.003847486279482837 pbc="T T T"
C        0.67965768      -1.16354570       0.58047567       0.00029856       0.00193987       0.00138660
C        1.98940224      -1.77732433       0.20889222      -0.00034682      -0.00126475      -0.00199645
C       -0.64675357       0.71504084      -0.19387556       0.00022120      -0.00020585       0.00135626
N        0.41342565      -0.03409450      -0.27510494      -0.00074252      -0.00232495       0.00259819
N       -1.55790438       0.46041383       0.70851908      -0.00192239       0.00116627      -0.00100916
N       -0.80996938       1.72656637      -1.01089963      -0.00214616       0.00078001      -0.00170143
H       -0.11408716      -1.88714149       0.46940678       0.00015433      -0.00026503      -0.00053400
H        0.70460903      -0.83106292       1.60748424       0.00034880       0.00022751      -0.00005951
H        2.79545355      -1.07218887       0.32865409       0.00026042       0.00053611      -0.00011077
H        1.97753784      -2.12877907      -0.80978129      -0.00006010       0.00030299      -0.00076612
H        1.08707915       0.18089689      -0.97133256      -0.00016978       0.00054682       0.00022078
H       -1.45727414      -0.29981090       1.33469929       0.00131947       0.00044304      -0.00069771
H       -2.37209857       1.01836350       0.79120734       0.00145309      -0.00062947      -0.00035578
H       -0.13609546       1.94268535      -1.70363666       0.00102117      -0.00050219       0.00168638
H       -1.61371886       2.30302223      -0.96410536       0.00062669      -0.00058930       0.00110384
H        2.19013522      -2.61986925       0.84635344      -0.00040413       0.00006728       0.00022804
C        5.77414420       5.78546919       6.40419768      -0.00164176       0.00412120       0.00764918
C        6.83659192       6.82525837       6.20653616       0.00444571       0.00069796      -0.00332467
H        5.79200533       5.39187287       7.40805033      -0.00062648       0.00045120      -0.00255621
H        4.79027623       6.19210690       6.23210017      -0.00801628       0.00962814       0.00515150
H        5.90585314       4.95615200       5.72755649       0.01106002      -0.01238218      -0.00582969
H        6.70484922       7.65457639       6.88316077       0.00014519      -0.00912812      -0.00492788
H        7.82047807       6.41864483       6.37860716      -0.00731594       0.00288632       0.00127370
H        6.81868224       7.21889320       5.20269647       0.00203771       0.00349713       0.00121489
