24
Lattice="30.0 0.0 0.0 0.0 30.0 0.0 0.0 0.0 30.0" Properties=species:S:1:pos:R:3:forces:R:3 dimer_id=5 label=PP energy=-13992.1951818804 chargeA=0 energyA=-7226.94738841643 chargeB=0 energyB=-6765.14331618421 indexB=12 distance=5.335926809545822 distance_initial=5.335926809545822 inter_energy=-0.10447727975952148 pbc="T T T"
C       -1.22696255      -0.85099511       1.54619103       0.00429119       0.00390651       0.00538821
C        1.32134449       0.37160841      -0.52917230      -0.02709256       0.03732670      -0.05394218
C       -0.41829446      -0.26267631       0.47011613      -0.04692849      -0.01804310       0.04394809
C       -0.82672071       0.26113002      -0.69821391       0.04606532       0.00093344      -0.00068348
N        0.93029102      -0.18395311       0.55676306       0.08478992       0.03008083       0.03946251
N        0.30086157       0.66506311      -1.33095307       0.01413660       0.01005165       0.01876658
H        2.33284417       0.58646531      -0.78910524       0.00245641      -0.00462640      -0.03190532
H        0.35816627       1.09595027      -2.21866176      -0.00247684       0.00002180      -0.01111123
H       -1.79497211       0.37755831      -1.12169858       0.00298601      -0.00193225       0.00189104
H       -0.93866141      -1.87496478       1.71958632      -0.00128387       0.00007046      -0.00311305
H       -2.27460164      -0.82762773       1.29929814       0.00703386       0.00066322       0.00056068
H       -1.08009530      -0.31216473       2.46807113       0.00015908       0.00135936      -0.00211040
C        3.01203784       3.40008142       2.07048725      -0.03206162      -0.00069574      -0.03009018
C        2.66099426       4.84085117       2.26499515       0.01180963      -0.00421955       0.00082130
C        3.17751666       2.67194362       3.36532980       0.03653874      -0.25998581      -0.07013303
O        3.04477271       3.19184320       4.42371424      -0.02187486       0.09817991       0.08812251
N        3.48931858       1.37525755       3.24102070       0.09755113       0.19309670       0.00616246
H        2.25164144       2.88886258       1.49649531      -0.01076892      -0.04017286       0.01846758
H        3.93149904       3.29621492       1.51119183       0.01212651       0.00481709       0.00430795
H        3.42523408       5.34715682       2.82879103       0.00055166       0.00866389       0.00396105
H        1.74105659       4.93856575       2.81503216      -0.00078325      -0.00380858      -0.00049690
H        3.61859304       0.83701731       4.06114163      -0.03647552      -0.00075811      -0.01908689
H        3.60575655       0.94772805       2.35911296      -0.13795776      -0.06477018      -0.00350810
H        2.54877114       5.33531698       1.31438671      -0.00279237       0.00984103      -0.00567919
24
Lattice="30.0 0.0 0.0 0.0 30.0 0.0 0.0 0.0 30.0" Properties=species:S:1:pos:R:3:forces:R:3 dimer_id=5 label=PP energy=-13992.1612364569 chargeA=0 energyA=-7226.94738841643 chargeB=0 energyB=-6765.14331618421 indexB=12 distance=5.815896194027601 distance_initial=5.335926809545822 inter_energy=-0.07053185625954939 pbc="T T T"
C       -1.22696255      -0.85099511       1.54619103       0.00355222       0.00269634       0.00315830
C        1.32134449       0.37160841      -0.52917230      -0.02225153       0.02941126      -0.03776399
C       -0.41829446      -0.26267631       0.47011613      -0.03527214      -0.01388991       0.03072841
C       -0.82672071       0.26113002      -0.69821391       0.03513694       0.00047089      -0.00118886
N        0.93029102      -0.18395311       0.55676306       0.05988595       0.02392303       0.03269942
N        0.30086157       0.66506311      -1.33095307       0.01050641       0.00681206       0.01490021
H        2.33284417       0.58646531      -0.78910524       0.00111019      -0.00622877      -0.02460888
H        0.35816627       1.09595027      -2.21866176      -0.00292938      -0.00066926      -0.00944339
H       -1.79497211       0.37755831      -1.12169858       0.00238461      -0.00153443       0.00133482
H       -0.93866141      -1.87496478       1.71958632      -0.00110571      -0.00030257      -0.00221985
H       -2.27460164      -0.82762773       1.29929814       0.00590213       0.00065201       0.00119536
H       -1.08009530      -0.31216473       2.46807113      -0.00107908       0.00093508      -0.00143076
C        3.28914830       3.67719187       2.34759770      -0.02348711      -0.00065371      -0.02211578
C        2.93810472       5.11796162       2.54210560       0.00761870      -0.00363075       0.00078253
C        3.45462712       2.94905407       3.64244025       0.02594272      -0.19129170      -0.05156776
O        3.32188317       3.46895365       4.70082469      -0.01332667       0.07300131       0.06504317
N        3.76642904       1.65236800       3.51813115       0.07033114       0.14375126       0.00321469
H        2.52875190       3.16597303       1.77360576      -0.00726596      -0.02739572       0.01282168
H        4.20860950       3.57332537       1.78830228       0.00811105       0.00319964       0.00390356
H        3.70234454       5.62426727       3.10590148       0.00078111       0.00633115       0.00301402
H        2.01816705       5.21567620       3.09214261      -0.00048612      -0.00319604      -0.00083125
H        3.89570350       1.11412776       4.33825208      -0.02933115      -0.00291392      -0.01446854
H        3.88286701       1.22483850       2.63622341      -0.09258073      -0.04668915      -0.00288458
H        2.82588160       5.61242743       1.59149716      -0.00214760       0.00721190      -0.00427254
24
Lattice="30.0 0.0 0.0 0.0 30.0 0.0 0.0 0.0 30.0" Properties=species:S:1:pos:R:3:forces:R:3 dimer_id=5 label=PP energy=-13992.1374567098 chargeA=0 energyA=-7226.94738841643 chargeB=0 energyB=-6765.14331618421 indexB=12 distance=6.339039081084028 distance_initial=5.335926809545822 inter_energy=-0.046752109159569954 pbc="T T T"
C       -1.22696255      -0.85099511       1.54619103       0.00301464       0.00179744       0.00155242
C        1.32134449       0.37160841      -0.52917230      -0.01945019       0.02043168      -0.02705701
C       -0.41829446      -0.26267631       0.47011613      -0.02607308      -0.01072681       0.02130313
C       -0.82672071       0.26113002      -0.69821391       0.02603731       0.00059457      -0.00131467
N        0.93029102      -0.18395311       0.55676306       0.04145850       0.01740603       0.02336342
N        0.30086157       0.66506311      -1.33095307       0.00851255       0.00442655       0.01214047
H        2.33284417       0.58646531      -0.78910524       0.00016643      -0.00603033      -0.01833914
H        0.35816627       1.09595027      -2.21866176      -0.00308649      -0.00096628      -0.00800773
H       -1.79497211       0.37755831      -1.12169858       0.00183305      -0.00105172       0.00096565
H       -0.93866141      -1.87496478       1.71958632      -0.00089906      -0.00051447      -0.00153791
H       -2.27460164      -0.82762773       1.29929814       0.00493546       0.00061930       0.00158069
H       -1.08009530      -0.31216473       2.46807113      -0.00172941       0.00065037      -0.00094276
C        3.59118498       3.97922856       2.64963439      -0.01756444      -0.00033795      -0.01555576
C        3.24014140       5.41999831       2.84414229       0.00477829      -0.00290864       0.00068617
C        3.75666380       3.25109076       3.94447694       0.01898498      -0.14085078      -0.03822454
O        3.62391985       3.77099034       5.00286138      -0.00812446       0.05447407       0.04858861
N        4.06846572       1.95440469       3.82016784       0.05172446       0.10766836       0.00179502
H        2.83078858       3.46800972       2.07564245      -0.00342154      -0.01671670       0.01010392
H        4.51064618       3.87536206       2.09033897       0.00529988       0.00193464       0.00304881
H        4.00438122       5.92630396       3.40793817       0.00091048       0.00463263       0.00231928
H        2.32020373       5.51771289       3.39417930      -0.00022320      -0.00268454      -0.00098951
H        4.19774018       1.41616445       4.64028877      -0.02314186      -0.00382687      -0.01059023
H        4.18490369       1.52687519       2.93826010      -0.06229885      -0.03324605      -0.00167286
H        3.12791828       5.91446412       1.89353385      -0.00164343       0.00522550      -0.00321548
24
Lattice="30.0 0.0 0.0 0.0 30.0 0.0 0.0 0.0 30.0" Properties=species:S:1:pos:R:3:forces:R:3 dimer_id=5 label=PP energy=-13992.1219731114 chargeA=0 energyA=-7226.94738841643 chargeB=0 energyB=-6765.14331618421 indexB=12 distance=6.909238953792281 distance_initial=5.335926809545822 inter_energy=-0.031268510760128265 pbc="T T T"
C       -1.22696255      -0.85099511       1.54619103       0.00255728       0.00113718       0.00039843
C        1.32134449       0.37160841      -0.52917230      -0.01679826       0.01383474      -0.01961664
C       -0.41829446      -0.26267631       0.47011613      -0.01940488      -0.00823559       0.01478231
C       -0.82672071       0.26113002      -0.69821391       0.01901578       0.00071258      -0.00121915
N        0.93029102      -0.18395311       0.55676306       0.02925110       0.01268094       0.01630078
N        0.30086157       0.66506311      -1.33095307       0.00700370       0.00284330       0.00989483
H        2.33284417       0.58646531      -0.78910524      -0.00029222      -0.00513107      -0.01331622
H        0.35816627       1.09595027      -2.21866176      -0.00302269      -0.00111681      -0.00674444
H       -1.79497211       0.37755831      -1.12169858       0.00137068      -0.00068691       0.00067852
H       -0.93866141      -1.87496478       1.71958632      -0.00070914      -0.00064489      -0.00103829
H       -2.27460164      -0.82762773       1.29929814       0.00412022       0.00055775       0.00174877
H       -1.08009530      -0.31216473       2.46807113      -0.00190807       0.00044471      -0.00057981
C        3.92039003       4.30843361       2.97883944      -0.01335547      -0.00024121      -0.01066476
C        3.56934645       5.74920336       3.17334734       0.00274253      -0.00212989       0.00039727
C        4.08586885       3.58029581       4.27368199       0.01408553      -0.10401711      -0.02860555
O        3.95312490       4.10019539       5.33206643      -0.00489263       0.04079211       0.03665692
N        4.39767077       2.28360974       4.14937289       0.03826041       0.08069190       0.00084706
H        3.15999363       3.79721477       2.40484750      -0.00071922      -0.00975814       0.00803394
H        4.83985123       4.20456711       2.41954402       0.00342667       0.00107910       0.00217529
H        4.33358627       6.25550901       3.73714322       0.00097662       0.00335566       0.00181268
H        2.64940878       5.84691794       3.72338435      -0.00005014      -0.00222237      -0.00098644
H        4.52694523       1.74536950       4.96949382      -0.01813696      -0.00398077      -0.00757989
H        4.51410874       1.85608024       3.26746515      -0.04228023      -0.02373334      -0.00099260
H        3.45712333       6.24366917       2.22273890      -0.00124062       0.00376815      -0.00238301
24
Lattice="30.0 0.0 0.0 0.0 30.0 0.0 0.0 0.0 30.0" Properties=species:S:1:pos:R:3:forces:R:3 dimer_id=5 label=PP energy=-13992.1122058144 chargeA=0 energyA=-7226.94738841643 chargeB=0 energyB=-6765.14331618421 indexB=12 distance=7.530728586368889 distance_initial=5.335926809545822 inter_energy=-0.02150121375962044 pbc="T T T"
C       -1.22696255      -0.85099511       1.54619103       0.00217912       0.00067523      -0.00036234
C        1.32134449       0.37160841      -0.52917230      -0.01399500       0.00948584      -0.01458631
C       -0.41829446      -0.26267631       0.47011613      -0.01461610      -0.00623359       0.01033493
C       -0.82672071       0.26113002      -0.69821391       0.01374713       0.00081271      -0.00117128
N        0.93029102      -0.18395311       0.55676306       0.02111641       0.00918468       0.01185420
N        0.30086157       0.66506311      -1.33095307       0.00557067       0.00195320       0.00801667
H        2.33284417       0.58646531      -0.78910524      -0.00038814      -0.00415011      -0.00954882
H        0.35816627       1.09595027      -2.21866176      -0.00280700      -0.00117396      -0.00564176
H       -1.79497211       0.37755831      -1.12169858       0.00101743      -0.00043174       0.00045163
H       -0.93866141      -1.87496478       1.71958632      -0.00052080      -0.00074957      -0.00066303
H       -2.27460164      -0.82762773       1.29929814       0.00342333       0.00049285       0.00176821
H       -1.08009530      -0.31216473       2.46807113      -0.00180271       0.00033290      -0.00029657
C        4.27920724       4.66725082       3.33765664      -0.01011451      -0.00021408      -0.00706721
C        3.92816366       6.10802057       3.53216454       0.00117970      -0.00143417      -0.00007610
C        4.44468606       3.93911302       4.63249919       0.01055424      -0.07719494      -0.02168721
O        4.31194211       4.45901260       5.69088363      -0.00287862       0.03065620       0.02795819
N        4.75648798       2.64242695       4.50819009       0.02825125       0.06043270       0.00011366
H        3.51881084       4.15603198       2.76366470       0.00075462      -0.00558991       0.00628628
H        5.19866844       4.56338432       2.77836122       0.00218738       0.00051462       0.00143681
H        4.69240348       6.61432622       4.09596042       0.00101300       0.00242461       0.00147001
H        3.00822599       6.20573515       4.08220155       0.00007656      -0.00180770      -0.00092712
H        4.88576244       2.10418671       5.32831102      -0.01417313      -0.00369892      -0.00533413
H        4.87292595       2.21489745       3.62628235      -0.02885116      -0.01699425      -0.00063483
H        3.81594054       6.60248638       2.58155610      -0.00092367       0.00270741      -0.00169388
24
Lattice="30.0 0.0 0.0 0.0 30.0 0.0 0.0 0.0 30.0" Properties=species:S:1:pos:R:3:forces:R:3 dimer_id=5 label=PP energy=-13992.1060604775 chargeA=0 energyA=-7226.94738841643 chargeB=0 energyB=-6765.14331618421 indexB=12 distance=8.208121538626928 distance_initial=5.335926809545822 inter_energy=-0.0153558768597577 pbc="T T T"
C       -1.22696255      -0.85099511       1.54619103       0.00189134       0.00039840      -0.00083081
C        1.32134449       0.37160841      -0.52917230      -0.01124033       0.00698261      -0.01114424
C       -0.41829446      -0.26267631       0.47011613      -0.01122779      -0.00466913       0.00725835
C       -0.82672071       0.26113002      -0.69821391       0.00990493       0.00083168      -0.00114695
N        0.93029102      -0.18395311       0.55676306       0.01561004       0.00658550       0.00922031
N        0.30086157       0.66506311      -1.33095307       0.00422163       0.00149958       0.00652614
H        2.33284417       0.58646531      -0.78910524      -0.00032661      -0.00333057      -0.00681293
H        0.35816627       1.09595027      -2.21866176      -0.00251057      -0.00117304      -0.00469871
H       -1.79497211       0.37755831      -1.12169858       0.00076400      -0.00026980       0.00027418
H       -0.93866141      -1.87496478       1.71958632      -0.00033491      -0.00084495      -0.00037657
H       -2.27460164      -0.82762773       1.29929814       0.00283970       0.00042794       0.00168926
H       -1.08009530      -0.31216473       2.46807113      -0.00156190       0.00026292      -0.00009745
C        4.67030024       5.05834382       3.72874965      -0.00769701      -0.00019045      -0.00450364
C        4.31925666       6.49911357       3.92325755      -0.00001604      -0.00090333      -0.00061399
C        4.83577906       4.33020602       5.02359220       0.00799276      -0.05760929      -0.01673308
O        4.70303511       4.85010560       6.08197664      -0.00162982       0.02309574       0.02162153
N        5.14758098       3.03351995       4.89928310       0.02089686       0.04516963      -0.00050596
H        3.90990384       4.54712498       3.15475771       0.00146464      -0.00317920       0.00484966
H        5.58976144       4.95447732       3.16945423       0.00137761       0.00015966       0.00086754
H        5.08349648       7.00541922       4.48705343       0.00101830       0.00173954       0.00122385
H        3.39931899       6.59682815       4.47329456       0.00018440      -0.00147263      -0.00088348
H        5.27685544       2.49527971       5.71940403      -0.01104994      -0.00321714      -0.00369789
H        5.26401895       2.60599045       4.01737536      -0.01988365      -0.01221953      -0.00035541
H        4.20703354       6.99357938       2.97264911      -0.00068764       0.00192586      -0.00112972
24
Lattice="30.0 0.0 0.0 0.0 30.0 0.0 0.0 0.0 30.0" Properties=species:S:1:pos:R:3:forces:R:3 dimer_id=5 label=PP energy=-13992.1019990045 chargeA=0 energyA=-7226.94738841643 chargeB=0 energyB=-6765.14331618421 indexB=12 distance=8.946446335111945 distance_initial=5.335926809545822 inter_energy=-0.011294403861029423 pbc="T T T"
C       -1.22696255      -0.85099511       1.54619103       0.00168207       0.00024568      -0.00110073
C        1.32134449       0.37160841      -0.52917230      -0.00888788       0.00535517      -0.00843691
C       -0.41829446      -0.26267631       0.47011613      -0.00866131      -0.00342994       0.00507321
C       -0.82672071       0.26113002      -0.69821391       0.00710142       0.00086347      -0.00112840
N        0.93029102      -0.18395311       0.55676306       0.01177446       0.00476931       0.00742033
N        0.30086157       0.66506311      -1.33095307       0.00309980       0.00122686       0.00536881
H        2.33284417       0.58646531      -0.78910524      -0.00020333      -0.00266028      -0.00485534
H        0.35816627       1.09595027      -2.21866176      -0.00219969      -0.00111145      -0.00392269
H       -1.79497211       0.37755831      -1.12169858       0.00057682      -0.00014872       0.00014108
H       -0.93866141      -1.87496478       1.71958632      -0.00016833      -0.00092396      -0.00015113
H       -2.27460164      -0.82762773       1.29929814       0.00234395       0.00037105       0.00155462
H       -1.08009530      -0.31216473       2.46807113      -0.00125888       0.00023166       0.00004860
C        5.09657226       5.48461584       4.15502167      -0.00594309      -0.00014550      -0.00265944
C        4.74552868       6.92538559       4.34952957      -0.00088529      -0.00052152      -0.00111717
C        5.26205108       4.75647804       5.44986422       0.00612818      -0.04320517      -0.01321176
O        5.12930713       5.27637762       6.50824866      -0.00088293       0.01741537       0.01701321
N        5.57385300       3.45979197       5.32555512       0.01565541       0.03376523      -0.00098729
H        4.33617586       4.97339700       3.58102973       0.00167937      -0.00192291       0.00362626
H        6.01603346       5.38074934       3.59572625       0.00085256      -0.00005323       0.00046217
H        5.50976850       7.43169124       4.91332545       0.00100361       0.00124067       0.00103831
H        3.82559101       7.02310017       4.89956658       0.00026902      -0.00121042      -0.00085277
H        5.70312746       2.92155173       6.14567605      -0.00862613      -0.00268119      -0.00252947
H        5.69029097       3.03226247       4.44364738      -0.01393859      -0.00882448      -0.00011811
H        4.63330556       7.41985140       3.39892113      -0.00051123       0.00135432      -0.00067542
24
Lattice="30.0 0.0 0.0 0.0 30.0 0.0 0.0 0.0 30.0" Properties=species:S:1:pos:R:3:forces:R:3 dimer_id=5 label=PP energy=-13992.0991526273 chargeA=0 energyA=-7226.94738841643 chargeB=0 energyB=-6765.14331618421 indexB=12 distance=9.751183836984893 distance_initial=5.335926809545822 inter_energy=-0.008448026659607422 pbc="T T T"
C       -1.22696255      -0.85099511       1.54619103       0.00152077       0.00015656      -0.00123412
C        1.32134449       0.37160841      -0.52917230      -0.00706538       0.00422207      -0.00635116
C       -0.41829446      -0.26267631       0.47011613      -0.00667836      -0.00249156       0.00350505
C       -0.82672071       0.26113002      -0.69821391       0.00503646       0.00087231      -0.00109761
N        0.93029102      -0.18395311       0.55676306       0.00894499       0.00346427       0.00604018
N        0.30086157       0.66506311      -1.33095307       0.00224981       0.00102516       0.00447447
H        2.33284417       0.58646531      -0.78910524      -0.00006632      -0.00210212      -0.00343115
H        0.35816627       1.09595027      -2.21866176      -0.00189268      -0.00100678      -0.00329377
H       -1.79497211       0.37755831      -1.12169858       0.00043986      -0.00005352       0.00004258
H       -0.93866141      -1.87496478       1.71958632      -0.00002030      -0.00098234       0.00002649
H       -2.27460164      -0.82762773       1.29929814       0.00193718       0.00032502       0.00139995
H       -1.08009530      -0.31216473       2.46807113      -0.00094264       0.00021743       0.00014557
C        5.56118768       5.94923125       4.61963708      -0.00467559      -0.00011466      -0.00133376
C        5.21014410       7.39000100       4.81414498      -0.00149896      -0.00022823      -0.00154321
C        5.72666650       5.22109345       5.91447963       0.00476461      -0.03255082      -0.01072360
O        5.59392255       5.74099303       6.97286407      -0.00044540       0.01312797       0.01366962
N        6.03846842       3.92440738       5.79017053       0.01190533       0.02522527      -0.00131923
H        4.80079128       5.43801241       4.04564514       0.00170852      -0.00120904       0.00271078
H        6.48064888       5.84536475       4.06034166       0.00051952      -0.00017228       0.00017997
H        5.97438392       7.89630665       5.37794086       0.00097959       0.00087795       0.00089140
H        4.29020643       7.48771558       5.36418199       0.00033658      -0.00100262      -0.00082857
H        6.16774288       3.38616714       6.61029146      -0.00676560      -0.00216370      -0.00171003
H        6.15490639       3.49687788       4.90826279      -0.00992116      -0.00638201       0.00008553
H        5.09792098       7.88446681       3.86353654      -0.00037081       0.00094568      -0.00030538
24
Lattice="30.0 0.0 0.0 0.0 30.0 0.0 0.0 0.0 30.0" Properties=species:S:1:pos:R:3:forces:R:3 dimer_id=5 label=PP energy=-13992.0971103977 chargeA=0 energyA=-7226.94738841643 chargeB=0 energyB=-6765.14331618421 indexB=12 distance=10.628307899028083 distance_initial=5.335926809545822 inter_energy=-0.006405797061233898 pbc="T T T"
C       -1.22696255      -0.85099511       1.54619103       0.00140201       0.00010825      -0.00128173
C        1.32134449       0.37160841      -0.52917230      -0.00565555       0.00342736      -0.00480950
C       -0.41829446      -0.26267631       0.47011613      -0.00513764      -0.00177497       0.00238125
C       -0.82672071       0.26113002      -0.69821391       0.00349819       0.00085081      -0.00108249
N        0.93029102      -0.18395311       0.55676306       0.00677833       0.00247808       0.00500669
N        0.30086157       0.66506311      -1.33095307       0.00160330       0.00086461       0.00378006
H        2.33284417       0.58646531      -0.78910524       0.00005842      -0.00166132      -0.00239982
H        0.35816627       1.09595027      -2.21866176      -0.00160634      -0.00088122      -0.00279003
H       -1.79497211       0.37755831      -1.12169858       0.00033784       0.00002264      -0.00003096
H       -0.93866141      -1.87496478       1.71958632       0.00010703      -0.00102974       0.00016524
H       -2.27460164      -0.82762773       1.29929814       0.00160331       0.00028993       0.00124323
H       -1.08009530      -0.31216473       2.46807113      -0.00064747       0.00021389       0.00021404
C        6.06759549       6.45563907       5.12604489      -0.00374776      -0.00007621      -0.00036399
C        5.71655191       7.89640882       5.32055279      -0.00193052      -0.00001004      -0.00187998
C        6.23307431       5.72750127       6.42088744       0.00377735      -0.02461314      -0.00896096
O        6.10033036       6.24740085       7.47927188      -0.00021015       0.00986769       0.01123663
N        6.54487623       4.43081520       6.29657834       0.00922913       0.01882489      -0.00151895
H        5.30719909       5.94442023       4.55205295       0.00167522      -0.00078460       0.00205800
H        6.98705669       6.35177257       4.56674947       0.00031313      -0.00023404      -0.00001497
H        6.48079173       8.40271447       5.88434867       0.00094131       0.00060974       0.00076464
H        4.79661424       7.99412340       5.87058980       0.00038968      -0.00083664      -0.00081058
H        6.67415069       3.89257496       7.11669927      -0.00534394      -0.00169434      -0.00114302
H        6.66131420       4.00328570       5.41467060      -0.00717394      -0.00461766       0.00024439
H        5.60432879       8.39087463       4.36994435      -0.00026092       0.00065601      -0.00000720
24
Lattice="30.0 0.0 0.0 0.0 30.0 0.0 0.0 0.0 30.0" Properties=species:S:1:pos:R:3:forces:R:3 dimer_id=5 label=PP energy=-13992.0956274262 chargeA=0 energyA=-7226.94738841643 chargeB=0 energyB=-6765.14331618421 indexB=12 distance=11.58432971591936 distance_initial=5.335926809545822 inter_energy=-0.004922825561152422 pbc="T T T"
C       -1.22696255      -0.85099511       1.54619103       0.00131621       0.00008473      -0.00127521
C        1.32134449       0.37160841      -0.52917230      -0.00457757       0.00285804      -0.00365822
C       -0.41829446      -0.26267631       0.47011613      -0.00395233      -0.00123937       0.00154948
C       -0.82672071       0.26113002      -0.69821391       0.00235700       0.00081861      -0.00106885
N        0.93029102      -0.18395311       0.55676306       0.00512518       0.00173889       0.00424561
N        0.30086157       0.66506311      -1.33095307       0.00110842       0.00072994       0.00323240
H        2.33284417       0.58646531      -0.78910524       0.00016527      -0.00131739      -0.00165060
H        0.35816627       1.09595027      -2.21866176      -0.00134669      -0.00074843      -0.00238567
H       -1.79497211       0.37755831      -1.12169858       0.00026285       0.00008719      -0.00008490
H       -0.93866141      -1.87496478       1.71958632       0.00021636      -0.00106526       0.00027410
H       -2.27460164      -0.82762773       1.29929814       0.00133149       0.00026580       0.00109605
H       -1.08009530      -0.31216473       2.46807113      -0.00038892       0.00021396       0.00026090
C        6.61955494       7.00759852       5.67800435      -0.00308088      -0.00005048       0.00034137
C        6.26851136       8.44836827       5.87251225      -0.00223342       0.00015147      -0.00214687
C        6.78503376       6.27946072       6.97284690       0.00305079      -0.01866290      -0.00771038
O        6.65228981       6.79936030       8.03123134      -0.00009610       0.00737823       0.00946011
N        7.09683568       4.98277465       6.84853780       0.00730999       0.01400531      -0.00162774
H        5.85915854       6.49637968       5.10401241       0.00162018      -0.00053050       0.00159655
H        7.53901614       6.90373202       5.11870893       0.00018924      -0.00026408      -0.00014737
H        7.03275118       8.95467392       6.43630813       0.00089817       0.00041372       0.00065644
H        5.34857369       8.54608285       6.42254926       0.00043178      -0.00070627      -0.00079843
H        7.22611014       4.44453441       7.66865873      -0.00425969      -0.00128320      -0.00075701
H        7.21327365       4.55524515       5.96663006      -0.00527267      -0.00333191       0.00036503
H        6.15628824       8.94283408       4.92190381      -0.00017465       0.00045390       0.00023320
