17
Lattice="30.0 0.0 0.0 0.0 30.0 0.0 0.0 0.0 30.0" Properties=species:S:1:pos:R:3:forces:R:3 dimer_id=3 label=PA energy=-7867.83253497651 chargeA=0 energyA=-5695.03617638405 chargeB=0 energyB=-2172.76014554603 indexB=9 distance=4.841109750702052 distance_initial=4.841109750702052 inter_energy=-0.03621304643002077 pbc="T T T"
C        0.67342972      -1.19367567       0.40097334       0.00494714       0.00843237       0.00421766
C       -0.02217724       0.07640416       0.05661897      -0.00013380      -0.03791917      -0.02953064
O       -0.30819579       0.89438994       0.86691377      -0.01030925       0.02844970       0.01711173
N       -0.32082889       0.22220790      -1.24102972       0.00607389       0.00936157       0.00585141
H       -0.03721871      -2.00458925       0.37653262      -0.00243640      -0.00056812      -0.00069701
H        1.07683133      -1.11440696       1.39224916       0.00362017       0.00679986       0.00576250
H       -0.81700782       1.03016588      -1.52473644      -0.00196831      -0.00191978      -0.00061104
H       -0.09396172      -0.46503236      -1.91178665       0.00035831      -0.00163931      -0.00000895
H        1.46111998      -1.41663598      -0.29931353       0.00056534      -0.00056775      -0.00013197
C        2.28917181       2.24354918       2.74767346       0.01827912       0.02396886      -0.05613339
C        3.30085629       3.34648566       2.84237688       0.01114337      -0.02853906       0.02730706
H        1.36029732       2.52122356       3.21992333      -0.00111795      -0.04115190      -0.06935697
H        2.64202072       1.34491624       3.22822183       0.01677614      -0.00812007       0.02369948
H        2.07087289       1.99840296       1.72043650      -0.07886818       0.01379332       0.06807048
H        3.51944328       3.59168634       3.86951505       0.01611520       0.01785927       0.01201867
H        2.94788200       4.24508218       2.36184128      -0.00676116       0.00172065      -0.00366116
H        4.22962677       3.06875145       2.36993999       0.02371637       0.01003957      -0.00390785
17
Lattice="30.0 0.0 0.0 0.0 30.0 0.0 0.0 0.0 30.0" Properties=species:S:1:pos:R:3:forces:R:3 dimer_id=3 label=PA energy=-7867.82195307459 chargeA=0 energyA=-5695.03617638405 chargeB=0 energyB=-2172.76014554603 indexB=9 distance=5.319536443717551 distance_initial=4.841109750702052 inter_energy=-0.02563114451004367 pbc="T T T"
C        0.67342972      -1.19367567       0.40097334       0.00227276       0.00390449       0.00116670
C       -0.02217724       0.07640416       0.05661897       0.00697978      -0.02151557      -0.01824337
O       -0.30819579       0.89438994       0.86691377       0.00872704       0.02971966       0.02106129
N       -0.32082889       0.22220790      -1.24102972       0.00132927       0.00546901       0.00473513
H       -0.03721871      -2.00458925       0.37653262      -0.00101652      -0.00040222      -0.00041799
H        1.07683133      -1.11440696       1.39224916       0.00190079       0.00385119       0.00380684
H       -0.81700782       1.03016588      -1.52473644      -0.00082446      -0.00133715      -0.00057183
H       -0.09396172      -0.46503236      -1.91178665       0.00010376      -0.00146267      -0.00009763
H        1.46111998      -1.41663598      -0.29931353       0.00011973      -0.00041299       0.00013097
C        2.56539159       2.51976896       3.02389324       0.00414932       0.01208973      -0.03539629
C        3.57707607       3.62270544       3.11859666       0.00363283      -0.01949152       0.01523653
H        1.63651710       2.79744334       3.49614311       0.00184916      -0.02767660      -0.04471665
H        2.91824050       1.62113602       3.50444161       0.00932005      -0.00314079       0.01422201
H        2.34709267       2.27462274       1.99665628      -0.06263787      -0.00037831       0.03560264
H        3.79566306       3.86790612       4.14573483       0.01091720       0.01220126       0.00961947
H        3.22410178       4.52130196       2.63806106      -0.00435504       0.00164219      -0.00271252
H        4.50584655       3.34497123       2.64615977       0.01753219       0.00694028      -0.00342533
17
Lattice="30.0 0.0 0.0 0.0 30.0 0.0 0.0 0.0 30.0" Properties=species:S:1:pos:R:3:forces:R:3 dimer_id=3 label=PA energy=-7867.80996619582 chargeA=0 energyA=-5695.03617638405 chargeB=0 energyB=-2172.76014554603 indexB=9 distance=5.8452440707807884 distance_initial=4.841109750702052 inter_energy=-0.0136442657403677 pbc="T T T"
C        0.67342972      -1.19367567       0.40097334       0.00100745       0.00188832      -0.00054008
C       -0.02217724       0.07640416       0.05661897       0.00470319      -0.01160272      -0.00970694
O       -0.30819579       0.89438994       0.86691377       0.00648218       0.01829785       0.01238111
N       -0.32082889       0.22220790      -1.24102972      -0.00029612       0.00354112       0.00336145
H       -0.03721871      -2.00458925       0.37653262      -0.00029688      -0.00016429      -0.00007944
H        1.07683133      -1.11440696       1.39224916       0.00093384       0.00203862       0.00239904
H       -0.81700782       1.03016588      -1.52473644      -0.00029392      -0.00097081      -0.00050246
H       -0.09396172      -0.46503236      -1.91178665       0.00023237      -0.00120493      -0.00022400
H        1.46111998      -1.41663598      -0.29931353      -0.00000586      -0.00028642       0.00032006
C        2.86890903       2.82328640       3.32741068       0.00289854       0.00858179      -0.02244472
C        3.88059351       3.92622288       3.42211410      -0.00016924      -0.01351441       0.00962925
H        1.94003454       3.10096078       3.79966055       0.00313279      -0.01841767      -0.02941664
H        3.22175794       1.92465346       3.80795905       0.00504997      -0.00098868       0.00848699
H        2.65061011       2.57814018       2.30017372      -0.04112038      -0.00187943       0.02378724
H        4.09918050       4.17142356       4.44925227       0.00764287       0.00865795       0.00751052
H        3.52761922       4.82481940       2.94157850      -0.00290089       0.00136261      -0.00201839
H        4.80936399       3.64848867       2.94967721       0.01300008       0.00466112      -0.00294299
17
Lattice="30.0 0.0 0.0 0.0 30.0 0.0 0.0 0.0 30.0" Properties=species:S:1:pos:R:3:forces:R:3 dimer_id=3 label=PA energy=-7867.80258756203 chargeA=0 energyA=-5695.03617638405 chargeB=0 energyB=-2172.76014554603 indexB=9 distance=6.422905185355346 distance_initial=4.841109750702052 inter_energy=-0.006265631949645467 pbc="T T T"
C        0.67342972      -1.19367567       0.40097334       0.00050996       0.00105461      -0.00147058
C       -0.02217724       0.07640416       0.05661897       0.00199055      -0.00605159      -0.00452651
O       -0.30819579       0.89438994       0.86691377       0.00313108       0.00944614       0.00558420
N       -0.32082889       0.22220790      -1.24102972      -0.00090486       0.00265413       0.00229224
H       -0.03721871      -2.00458925       0.37653262       0.00000756      -0.00005779       0.00015531
H        1.07683133      -1.11440696       1.39224916       0.00044687       0.00107269       0.00158934
H       -0.81700782       1.03016588      -1.52473644      -0.00000019      -0.00083033      -0.00043075
H       -0.09396172      -0.46503236      -1.91178665       0.00033136      -0.00103625      -0.00028556
H        1.46111998      -1.41663598      -0.29931353      -0.00004078      -0.00024313       0.00043287
C        3.20242183       3.15679920       3.66092348       0.00312202       0.00649341      -0.01488810
C        4.21410631       4.25973568       3.75562690      -0.00187125      -0.00927390       0.00653629
H        2.27354734       3.43447358       4.13317335       0.00318968      -0.01227174      -0.01964840
H        3.55527074       2.25816626       4.14147185       0.00260893      -0.00009959       0.00494384
H        2.98412291       2.91165298       2.63368652      -0.02554584      -0.00111669       0.01787238
H        4.43269330       4.50493636       4.78276507       0.00538792       0.00620198       0.00577230
H        3.86113202       5.15833220       3.27509130      -0.00193823       0.00097694      -0.00147938
H        5.14287679       3.98200147       3.28319001       0.00957519       0.00308112      -0.00244948
17
Lattice="30.0 0.0 0.0 0.0 30.0 0.0 0.0 0.0 30.0" Properties=species:S:1:pos:R:3:forces:R:3 dimer_id=3 label=PA energy=-7867.79884321956 chargeA=0 energyA=-5695.03617638405 chargeB=0 energyB=-2172.76014554603 indexB=9 distance=7.057654140291116 distance_initial=4.841109750702052 inter_energy=-0.002521289479773259 pbc="T T T"
C        0.67342972      -1.19367567       0.40097334       0.00034140       0.00069820      -0.00191034
C       -0.02217724       0.07640416       0.05661897       0.00057592      -0.00337303      -0.00223802
O       -0.30819579       0.89438994       0.86691377       0.00108911       0.00473351       0.00233410
N       -0.32082889       0.22220790      -1.24102972      -0.00120022       0.00219513       0.00167777
H       -0.03721871      -2.00458925       0.37653262       0.00011402      -0.00004572       0.00028410
H        1.07683133      -1.11440696       1.39224916       0.00020277       0.00058654       0.00114198
H       -0.81700782       1.03016588      -1.52473644       0.00019467      -0.00076111      -0.00038200
H       -0.09396172      -0.46503236      -1.91178665       0.00037840      -0.00093249      -0.00028221
H        1.46111998      -1.41663598      -0.29931353      -0.00002901      -0.00022971       0.00050606
C        3.56889431       3.52327168       4.02739596       0.00292003       0.00456321      -0.01006114
C        4.58057879       4.62620816       4.12209938      -0.00224435      -0.00605788       0.00440462
H        2.64001982       3.80094606       4.49964583       0.00280614      -0.00816689      -0.01323801
H        3.92174322       2.62463874       4.50794433       0.00126194       0.00025392       0.00277493
H        3.35059539       3.27812546       3.00015900      -0.01588478      -0.00052135       0.01350770
H        4.79916578       4.87140884       5.14923755       0.00376290       0.00441245       0.00451280
H        4.22760450       5.52480468       3.64156378      -0.00125891       0.00063010      -0.00105637
H        5.50934927       4.34847395       3.64966249       0.00696994       0.00201514      -0.00197596
17
Lattice="30.0 0.0 0.0 0.0 30.0 0.0 0.0 0.0 30.0" Properties=species:S:1:pos:R:3:forces:R:3 dimer_id=3 label=PA energy=-7867.79733090082 chargeA=0 energyA=-5695.03617638405 chargeB=0 energyB=-2172.76014554603 indexB=9 distance=7.755132681175061 distance_initial=4.841109750702052 inter_energy=-0.001008970740258519 pbc="T T T"
C        0.67342972      -1.19367567       0.40097334       0.00027235       0.00050796      -0.00212138
C       -0.02217724       0.07640416       0.05661897       0.00012872      -0.00236408      -0.00175785
O       -0.30819579       0.89438994       0.86691377       0.00002101       0.00282184       0.00135682
N       -0.32082889       0.22220790      -1.24102972      -0.00140080       0.00188220       0.00152540
H       -0.03721871      -2.00458925       0.37653262       0.00013598      -0.00006612       0.00033622
H        1.07683133      -1.11440696       1.39224916       0.00009957       0.00035343       0.00091659
H       -0.81700782       1.03016588      -1.52473644       0.00032414      -0.00069282      -0.00035647
H       -0.09396172      -0.46503236      -1.91178665       0.00040307      -0.00086916      -0.00026661
H        1.46111998      -1.41663598      -0.29931353      -0.00001394      -0.00021501       0.00054715
C        3.97158373       3.92596111       4.43008538       0.00233361       0.00270210      -0.00683092
C        4.98326821       5.02889759       4.52478880      -0.00204018      -0.00362558       0.00275461
H        3.04270924       4.20363549       4.90233525       0.00228517      -0.00540718      -0.00898987
H        4.32443264       3.02732817       4.91063375       0.00053636       0.00036585       0.00145098
H        3.75328481       3.68081489       3.40284842      -0.00993179      -0.00016470       0.01010669
H        5.20185520       5.27409827       5.55192697       0.00257356       0.00309423       0.00363898
H        4.63029392       5.92749411       4.04425320      -0.00076184       0.00037736      -0.00073130
H        5.91203869       4.75116338       4.05235191       0.00503501       0.00129968      -0.00157904
17
Lattice="30.0 0.0 0.0 0.0 30.0 0.0 0.0 0.0 30.0" Properties=species:S:1:pos:R:3:forces:R:3 dimer_id=3 label=PA energy=-7867.79668278031 chargeA=0 energyA=-5695.03617638405 chargeB=0 energyB=-2172.76014554603 indexB=9 distance=8.521540129616618 distance_initial=4.841109750702052 inter_energy=-0.0003608502302085981 pbc="T T T"
C        0.67342972      -1.19367567       0.40097334       0.00022736       0.00039925      -0.00223668
C       -0.02217724       0.07640416       0.05661897       0.00005973      -0.00208930      -0.00197776
O       -0.30819579       0.89438994       0.86691377      -0.00046905       0.00221768       0.00130194
N       -0.32082889       0.22220790      -1.24102972      -0.00153204       0.00168015       0.00163130
H       -0.03721871      -2.00458925       0.37653262       0.00013862      -0.00007856       0.00035801
H        1.07683133      -1.11440696       1.39224916       0.00006692       0.00024217       0.00081355
H       -0.81700782       1.03016588      -1.52473644       0.00040633      -0.00063115      -0.00034625
H       -0.09396172      -0.46503236      -1.91178665       0.00043619      -0.00082699      -0.00025762
H        1.46111998      -1.41663598      -0.29931353      -0.00000730      -0.00019782       0.00057797
C        4.41406928       4.36844665       4.87257093       0.00180802       0.00124234      -0.00467932
C        5.42575376       5.47138313       4.96727435      -0.00175771      -0.00196083       0.00151764
H        3.48519479       4.64612103       5.34482080       0.00178176      -0.00356467      -0.00617243
H        4.76691819       3.46981371       5.35311930       0.00017210       0.00039501       0.00064877
H        4.19577036       4.12330043       3.84533397      -0.00628537       0.00000287       0.00754904
H        5.64434075       5.71658381       5.99441252       0.00172690       0.00214726       0.00299993
H        5.07277947       6.36997965       4.48673875      -0.00039867       0.00019331      -0.00048059
H        6.35452424       5.19364892       4.49483746       0.00362621       0.00082928      -0.00124748
17
Lattice="30.0 0.0 0.0 0.0 30.0 0.0 0.0 0.0 30.0" Properties=species:S:1:pos:R:3:forces:R:3 dimer_id=3 label=PA energy=-7867.79642299745 chargeA=0 energyA=-5695.03617638405 chargeB=0 energyB=-2172.76014554603 indexB=9 distance=9.363688433595854 distance_initial=4.841109750702052 inter_energy=-0.0001010673695418518 pbc="T T T"
C        0.67342972      -1.19367567       0.40097334       0.00019747       0.00033997      -0.00231367
C       -0.02217724       0.07640416       0.05661897       0.00004987      -0.00202860      -0.00229373
O       -0.30819579       0.89438994       0.86691377      -0.00064003       0.00205905       0.00146244
N       -0.32082889       0.22220790      -1.24102972      -0.00160550       0.00156138       0.00179509
H       -0.03721871      -2.00458925       0.37653262       0.00013892      -0.00008454       0.00036972
H        1.07683133      -1.11440696       1.39224916       0.00005747       0.00018158       0.00076839
H       -0.81700782       1.03016588      -1.52473644       0.00045664      -0.00058743      -0.00034415
H       -0.09396172      -0.46503236      -1.91178665       0.00046722      -0.00080115      -0.00025426
H        1.46111998      -1.41663598      -0.29931353      -0.00000759      -0.00018529       0.00059989
C        4.90028383       4.85466120       5.35878548       0.00145200       0.00020863      -0.00322093
C        5.91196831       5.95759768       5.45348890      -0.00148389      -0.00083882       0.00065330
H        3.97140934       5.13233558       5.83103535       0.00136084      -0.00232175      -0.00427330
H        5.25313274       3.95602826       5.83933385       0.00000866       0.00040244       0.00017092
H        4.68198491       4.60951498       4.33154852      -0.00404836       0.00005095       0.00564423
H        6.13055530       6.20279836       6.48062707       0.00112966       0.00146374       0.00249230
H        5.55899402       6.85619420       4.97295330      -0.00013368       0.00005465      -0.00028643
H        6.84073879       5.67986347       4.98105201       0.00260031       0.00052517      -0.00096980
17
Lattice="30.0 0.0 0.0 0.0 30.0 0.0 0.0 0.0 30.0" Properties=species:S:1:pos:R:3:forces:R:3 dimer_id=3 label=PA energy=-7867.79632899977 chargeA=0 energyA=-5695.03617638405 chargeB=0 energyB=-2172.76014554603 indexB=9 distance=10.289062737280224 distance_initial=4.841109750702052 inter_energy=-7.069689672789536e-06 pbc="T T T"
C        0.67342972      -1.19367567       0.40097334       0.00018171       0.00030940      -0.00236081
C       -0.02217724       0.07640416       0.05661897       0.00004415      -0.00202579      -0.00256286
O       -0.30819579       0.89438994       0.86691377      -0.00071484       0.00202066       0.00162112
N       -0.32082889       0.22220790      -1.24102972      -0.00164045       0.00149043       0.00194804
H       -0.03721871      -2.00458925       0.37653262       0.00013943      -0.00008733       0.00037671
H        1.07683133      -1.11440696       1.39224916       0.00005432       0.00014649       0.00074264
H       -0.81700782       1.03016588      -1.52473644       0.00048742      -0.00055718      -0.00034683
H       -0.09396172      -0.46503236      -1.91178665       0.00048842      -0.00078695      -0.00025634
H        1.46111998      -1.41663598      -0.29931353      -0.00000721      -0.00017706       0.00061420
C        5.43454893       5.38892631       5.89305058       0.00122780      -0.00050918      -0.00222988
C        6.44623341       6.49186279       5.98775400      -0.00123429      -0.00007525       0.00007646
H        4.50567444       5.66660069       6.36530045       0.00101920      -0.00147311      -0.00297576
H        5.78739784       4.49029337       6.37359895      -0.00004423       0.00040164      -0.00010724
H        5.21625001       5.14378009       4.86581362      -0.00262434       0.00006533       0.00426010
H        6.66482040       6.73706347       7.01489217       0.00071078       0.00097103       0.00208079
H        6.09325912       7.39045931       5.50721840       0.00006016      -0.00004468      -0.00014093
H        7.37500389       6.21412858       5.51531711       0.00185196       0.00033154      -0.00073941
17
Lattice="30.0 0.0 0.0 0.0 30.0 0.0 0.0 0.0 30.0" Properties=species:S:1:pos:R:3:forces:R:3 dimer_id=3 label=PA energy=-7867.7962896839 chargeA=0 energyA=-5695.03617638405 chargeB=0 energyB=-2172.76014554603 indexB=9 distance=11.30588793219008 distance_initial=4.841109750702052 inter_energy=3.224618012609426e-05 pbc="T T T"
C        0.67342972      -1.19367567       0.40097334       0.00017533       0.00029523      -0.00238636
C       -0.02217724       0.07640416       0.05661897       0.00004256      -0.00204324      -0.00277205
O       -0.30819579       0.89438994       0.86691377      -0.00074964       0.00203074       0.00174921
N       -0.32082889       0.22220790      -1.24102972      -0.00165894       0.00144358       0.00206906
H       -0.03721871      -2.00458925       0.37653262       0.00014010      -0.00008883       0.00038072
H        1.07683133      -1.11440696       1.39224916       0.00005355       0.00012643       0.00072808
H       -0.81700782       1.03016588      -1.52473644       0.00050514      -0.00053675      -0.00035171
H       -0.09396172      -0.46503236      -1.91178665       0.00050257      -0.00077919      -0.00026013
H        1.46111998      -1.41663598      -0.29931353      -0.00000746      -0.00017250       0.00062363
C        6.02161323       5.97599061       6.48011488       0.00109085      -0.00100363      -0.00156354
C        7.03329771       7.07892709       6.57481830      -0.00102395       0.00044038      -0.00031217
H        5.09273874       6.25366499       6.95236475       0.00074752      -0.00088682      -0.00207617
H        6.37446214       5.07735767       6.96066325      -0.00003996       0.00039931      -0.00026387
H        5.80331431       5.73084439       5.45287792      -0.00170163       0.00006579       0.00326177
H        7.25188470       7.32412777       7.60195647       0.00041852       0.00061625       0.00175177
H        6.68032342       7.97752361       6.09428270       0.00020279      -0.00011809      -0.00002984
H        7.96206819       6.80119288       6.10238141       0.00130266       0.00021134      -0.00054839
