16
Lattice="30.0 0.0 0.0 0.0 30.0 0.0 0.0 0.0 30.0" Properties=species:S:1:pos:R:3:forces:R:3 dimer_id=4 label=CP energy=-11916.9821068075 chargeA=-1 energyA=-5695.03591942018 chargeB=0 energyB=-6221.39968933817 indexB=9 distance=5.342148511658751 distance_initial=5.342148511658751 inter_energy=-0.5464980491497045 pbc="T T T"
C        0.27898999       0.12336904      -1.39507445       0.00986543      -0.03994287      -0.11010152
C       -0.04497896      -0.07567494       0.04412388       0.47762155       1.16454654       0.68200633
O       -0.59734955      -1.04165026       0.45523050      -0.35890753      -0.69710601      -0.02418616
N        0.33604354       0.92546171       0.84889709      -0.41547009      -0.74015341      -0.79339276
H        0.14839173       0.85246368       1.81781221       0.20083052       0.20350368       0.05964688
H        0.79590560       1.72813664       0.50527693       0.24790059       0.24290474       0.37600012
H        1.34254508       0.23939511      -1.52751998      -0.01129801       0.02299676       0.01941483
H       -0.20263056       1.01302820      -1.76756385       0.01854541       0.00619713       0.01415038
H       -0.06106989      -0.72829503      -1.95207972      -0.01095197      -0.02688096      -0.02767945
C        4.18998337       2.35218150       2.61968508      -0.04133452       0.03174806       0.00545291
C        2.98472159       3.13978242       3.12728489       0.40463817       0.03336904       0.36043184
O        2.01167636       3.16023332       2.38505273      -0.38019502      -0.08811185      -0.29288649
O        3.13509277       3.68669186       4.21229047      -0.11795706      -0.09801289      -0.25902317
H        4.86124691       3.04370122       2.12981419      -0.00763792      -0.00340453       0.00491940
H        3.89510838       1.60374391       1.90219245       0.00399574      -0.01964582       0.00493854
H        4.72611527       1.90110257       3.43934311      -0.01964528       0.00799237      -0.01969170
16
Lattice="30.0 0.0 0.0 0.0 30.0 0.0 0.0 0.0 30.0" Properties=species:S:1:pos:R:3:forces:R:3 dimer_id=4 label=CP energy=-11916.8574703354 chargeA=-1 energyA=-5695.03591942018 chargeB=0 energyB=-6221.39968933817 indexB=9 distance=5.822112122637837 distance_initial=5.342148511658751 inter_energy=-0.4218615770505494 pbc="T T T"
C        0.27898999       0.12336904      -1.39507445       0.00825023      -0.03263791      -0.08947412
C       -0.04497896      -0.07567494       0.04412388       0.39909878       0.94315182       0.54599372
O       -0.59734955      -1.04165026       0.45523050      -0.29008907      -0.55121570      -0.02310979
N        0.33604354       0.92546171       0.84889709      -0.33063709      -0.56894220      -0.60961961
H        0.14839173       0.85246368       1.81781221       0.15885168       0.14922112       0.06124033
H        0.79590560       1.72813664       0.50527693       0.18467093       0.17287232       0.25736817
H        1.34254508       0.23939511      -1.52751998      -0.01025721       0.02037964       0.01792314
H       -0.20263056       1.01302820      -1.76756385       0.01670393       0.00581360       0.01254005
H       -0.06106989      -0.72829503      -1.95207972      -0.00922914      -0.02172300      -0.02050765
C        4.46709049       2.62928862       2.89679220      -0.02740948       0.02450595       0.00752732
C        3.26182871       3.41688954       3.40439201       0.29061959       0.01915112       0.26633351
O        2.28878348       3.43734044       2.66215985      -0.29176602      -0.07693476      -0.22439718
O        3.41219989       3.96379898       4.48939759      -0.08511905      -0.07104758      -0.19328460
H        5.13835403       3.32080834       2.40692131      -0.00554197      -0.00375729       0.00376225
H        4.17221550       1.88085103       2.17929957       0.00617752      -0.01449064       0.00362177
H        5.00322239       2.17820969       3.71645023      -0.01432362       0.00565352      -0.01591731
16
Lattice="30.0 0.0 0.0 0.0 30.0 0.0 0.0 0.0 30.0" Properties=species:S:1:pos:R:3:forces:R:3 dimer_id=4 label=CP energy=-11916.7582001268 chargeA=-1 energyA=-5695.03591942018 chargeB=0 energyB=-6221.39968933817 indexB=9 distance=6.34519792707315 distance_initial=5.342148511658751 inter_energy=-0.3225913684500483 pbc="T T T"
C        0.27898999       0.12336904      -1.39507445       0.00708862      -0.02639901      -0.07257027
C       -0.04497896      -0.07567494       0.04412388       0.32875436       0.76208868       0.43800181
O       -0.59734955      -1.04165026       0.45523050      -0.23544329      -0.43963867      -0.02181551
N        0.33604354       0.92546171       0.84889709      -0.27130394      -0.45067526      -0.48280427
H        0.14839173       0.85246368       1.81781221       0.12327706       0.10822626       0.05552191
H        0.79590560       1.72813664       0.50527693       0.13639109       0.12064532       0.17756272
H        1.34254508       0.23939511      -1.52751998      -0.00901250       0.01775353       0.01578214
H       -0.20263056       1.01302820      -1.76756385       0.01483675       0.00533322       0.01103575
H       -0.06106989      -0.72829503      -1.95207972      -0.00760548      -0.01750366      -0.01512523
C        4.76909422       2.93129235       3.19879593      -0.01802906       0.01879960       0.00815623
C        3.56383244       3.71889327       3.70639574       0.20629736       0.01573955       0.19499985
O        2.59078721       3.73934417       2.96416358      -0.20643825      -0.05105661      -0.15879466
O        3.71420362       4.26580271       4.79140132      -0.06075040      -0.05282459      -0.14254798
H        5.44035776       3.62281207       2.70892504      -0.00411319      -0.00380213       0.00290604
H        4.47421923       2.18285476       2.48130330       0.00657269      -0.01077780       0.00244469
H        5.30522612       2.48021342       4.01845396      -0.01052180       0.00409157      -0.01275324
16
Lattice="30.0 0.0 0.0 0.0 30.0 0.0 0.0 0.0 30.0" Properties=species:S:1:pos:R:3:forces:R:3 dimer_id=4 label=CP energy=-11916.6852214295 chargeA=-1 energyA=-5695.03591942018 chargeB=0 energyB=-6221.39968933817 indexB=9 distance=6.915280210852076 distance_initial=5.342148511658751 inter_energy=-0.2496126711494071 pbc="T T T"
C        0.27898999       0.12336904      -1.39507445       0.00615138      -0.02113117      -0.05892603
C       -0.04497896      -0.07567494       0.04412388       0.26931756       0.61548221       0.35191688
O       -0.59734955      -1.04165026       0.45523050      -0.19177167      -0.35266520      -0.02017206
N        0.33604354       0.92546171       0.84889709      -0.22287446      -0.35965010      -0.38600401
H        0.14839173       0.85246368       1.81781221       0.09558681       0.07895415       0.04827190
H        0.79590560       1.72813664       0.50527693       0.10252255       0.08569515       0.12540158
H        1.34254508       0.23939511      -1.52751998      -0.00780909       0.01523531       0.01349183
H       -0.20263056       1.01302820      -1.76756385       0.01302774       0.00479581       0.00958027
H       -0.06106989      -0.72829503      -1.95207972      -0.00617256      -0.01413902      -0.01113815
C        5.09823138       3.26042951       3.52793309      -0.01180378       0.01429400       0.00774832
C        3.89296960       4.04803043       4.03553290       0.14680128       0.01405175       0.14309985
O        2.91992437       4.06848133       3.29330074      -0.14448488      -0.03247255      -0.11175836
O        4.04334078       4.59493987       5.12053848      -0.04344778      -0.03988256      -0.10532876
H        5.76949492       3.95194923       3.03806220      -0.00308436      -0.00363072       0.00232929
H        4.80335639       2.51199192       2.81044046       0.00583446      -0.00801280       0.00162458
H        5.63436328       2.80935058       4.34759112      -0.00779321       0.00307574      -0.01013713
16
Lattice="30.0 0.0 0.0 0.0 30.0 0.0 0.0 0.0 30.0" Properties=species:S:1:pos:R:3:forces:R:3 dimer_id=4 label=CP energy=-11916.6315122717 chargeA=-1 energyA=-5695.03591942018 chargeB=0 energyB=-6221.39968933817 indexB=9 distance=7.5365813501128 distance_initial=5.342148511658751 inter_energy=-0.19590351335045852 pbc="T T T"
C        0.27898999       0.12336904      -1.39507445       0.00535089      -0.01666958      -0.04785569
C       -0.04497896      -0.07567494       0.04412388       0.22018963       0.49714818       0.28319423
O       -0.59734955      -1.04165026       0.45523050      -0.15659918      -0.28393998      -0.01822712
N        0.33604354       0.92546171       0.84889709      -0.18231619      -0.28767893      -0.30951899
H        0.14839173       0.85246368       1.81781221       0.07441584       0.05817312       0.04108906
H        0.79590560       1.72813664       0.50527693       0.07859283       0.06262092       0.09068660
H        1.34254508       0.23939511      -1.52751998      -0.00672914       0.01288883       0.01127537
H       -0.20263056       1.01302820      -1.76756385       0.01132579       0.00422904       0.00814488
H       -0.06106989      -0.72829503      -1.95207972      -0.00494060      -0.01147824      -0.00822791
C        5.45693976       3.61913789       3.88664147      -0.00763880       0.01080145       0.00683647
C        4.25167798       4.40673881       4.39424128       0.10544690       0.01214455       0.10560504
O        3.27863275       4.42718971       3.65200912      -0.10218449      -0.02086313      -0.07972081
O        4.40204916       4.95364825       5.47924686      -0.03143321      -0.03044564      -0.07830350
H        6.12820330       4.31065761       3.39677058      -0.00234516      -0.00336314       0.00191319
H        5.16206477       2.87070030       3.16914884       0.00468452      -0.00595216       0.00114579
H        5.99307166       3.16805896       4.70629950      -0.00581963       0.00238471      -0.00803661
16
Lattice="30.0 0.0 0.0 0.0 30.0 0.0 0.0 0.0 30.0" Properties=species:S:1:pos:R:3:forces:R:3 dimer_id=4 label=CP energy=-11916.5910687512 chargeA=-1 energyA=-5695.03591942018 chargeB=0 energyB=-6221.39968933817 indexB=9 distance=8.213703080534879 distance_initial=5.342148511658751 inter_energy=-0.15545999285041034 pbc="T T T"
C        0.27898999       0.12336904      -1.39507445       0.00463966      -0.01295549      -0.03876413
C       -0.04497896      -0.07567494       0.04412388       0.17989898       0.40169180       0.22818835
O       -0.59734955      -1.04165026       0.45523050      -0.12803532      -0.22898489      -0.01615076
N        0.33604354       0.92546171       0.84889709      -0.14845677      -0.23049221      -0.24851480
H        0.14839173       0.85246368       1.81781221       0.05816031       0.04327718       0.03437986
H        0.79590560       1.72813664       0.50527693       0.06095169       0.04683880       0.06680467
H        1.34254508       0.23939511      -1.52751998      -0.00579903       0.01078479       0.00927556
H       -0.20263056       1.01302820      -1.76756385       0.00977665       0.00365336       0.00680802
H       -0.06106989      -0.72829503      -1.95207972      -0.00388812      -0.00932796      -0.00609939
C        5.84787618       4.01007430       4.27757788      -0.00491667       0.00811996       0.00576551
C        4.64261440       4.79767522       4.78517769       0.07668389       0.00997594       0.07833599
O        3.66956917       4.81812612       4.04294553      -0.07316042      -0.01356413      -0.05751467
O        4.79298558       5.34458466       5.87018327      -0.02315111      -0.02343168      -0.05864397
H        6.51913972       4.70159402       3.78770699      -0.00182059      -0.00307610       0.00161459
H        5.55300119       3.26163671       3.56008525       0.00352481      -0.00441872       0.00089366
H        6.38400808       3.55899537       5.09723591      -0.00440794       0.00190937      -0.00637850
16
Lattice="30.0 0.0 0.0 0.0 30.0 0.0 0.0 0.0 30.0" Properties=species:S:1:pos:R:3:forces:R:3 dimer_id=4 label=CP energy=-11916.5599891404 chargeA=-1 energyA=-5695.03591942018 chargeB=0 energyB=-6221.39968933817 indexB=9 distance=8.951660607193157 distance_initial=5.342148511658751 inter_energy=-0.12438038204982149 pbc="T T T"
C        0.27898999       0.12336904      -1.39507445       0.00401073      -0.00990473      -0.03126195
C       -0.04497896      -0.07567494       0.04412388       0.14677471       0.32446923       0.18388315
O       -0.59734955      -1.04165026       0.45523050      -0.10461788      -0.18461155      -0.01406766
N        0.33604354       0.92546171       0.84889709      -0.12041420      -0.18479300      -0.19958885
H        0.14839173       0.85246368       1.81781221       0.04562036       0.03249548       0.02836407
H        0.79590560       1.72813664       0.50527693       0.04757823       0.03553154       0.04994446
H        1.34254508       0.23939511      -1.52751998      -0.00501070       0.00893453       0.00751575
H       -0.20263056       1.01302820      -1.76756385       0.00839784       0.00308554       0.00560957
H       -0.06106989      -0.72829503      -1.95207972      -0.00299688      -0.00754909      -0.00453243
C        6.27393615       4.43613428       4.70363786      -0.00315152       0.00609073       0.00474208
C        5.06867437       5.22373520       5.21123767       0.05640423       0.00787916       0.05817915
O        4.09562914       5.24418610       4.46900551      -0.05290753      -0.00898220      -0.04166827
O        5.21904555       5.77064464       6.29624325      -0.01739425      -0.01812234      -0.04418127
H        6.94519969       5.12765400       4.21376697      -0.00145487      -0.00281006       0.00139269
H        5.97906116       3.68769669       3.98614523       0.00255271      -0.00329128       0.00075913
H        6.81006805       3.98505535       5.52329589      -0.00339098       0.00157803      -0.00508963
16
Lattice="30.0 0.0 0.0 0.0 30.0 0.0 0.0 0.0 30.0" Properties=species:S:1:pos:R:3:forces:R:3 dimer_id=4 label=CP energy=-11916.5356387764 chargeA=-1 energyA=-5695.03591942018 chargeB=0 energyB=-6221.39968933817 indexB=9 distance=9.755919693539044 distance_initial=5.342148511658751 inter_energy=-0.10003001805034728 pbc="T T T"
C        0.27898999       0.12336904      -1.39507445       0.00342566      -0.00743901      -0.02507332
C       -0.04497896      -0.07567494       0.04412388       0.11942138       0.26161850       0.14786321
O       -0.59734955      -1.04165026       0.45523050      -0.08531622      -0.14854410      -0.01206503
N        0.33604354       0.92546171       0.84889709      -0.09730036      -0.14802173      -0.16007956
H        0.14839173       0.85246368       1.81781221       0.03587774       0.02460210       0.02313288
H        0.79590560       1.72813664       0.50527693       0.03727453       0.02719467       0.03776529
H        1.34254508       0.23939511      -1.52751998      -0.00434552       0.00732995       0.00599818
H       -0.20263056       1.01302820      -1.76756385       0.00718186       0.00254391       0.00456508
H       -0.06106989      -0.72829503      -1.95207972      -0.00224850      -0.00606464      -0.00336677
C        6.73827535       4.90047348       5.16797706      -0.00202780       0.00457810       0.00383684
C        5.53301357       5.68807440       5.67557687       0.04194948       0.00597671       0.04313697
O        4.55996834       5.70852530       4.93334471      -0.03851164      -0.00602305      -0.03013971
O        5.68338475       6.23498384       6.76058245      -0.01335659      -0.01406890      -0.03342697
H        7.40953889       5.59199320       4.67810617      -0.00120667      -0.00258803       0.00122618
H        6.44340036       4.15203589       4.45048443       0.00183791      -0.00243125       0.00071592
H        7.27440725       4.44939455       5.98763509      -0.00265526       0.00133679      -0.00408918
16
Lattice="30.0 0.0 0.0 0.0 30.0 0.0 0.0 0.0 30.0" Properties=species:S:1:pos:R:3:forces:R:3 dimer_id=4 label=CP energy=-11916.5162292465 chargeA=-1 energyA=-5695.03591942018 chargeB=0 energyB=-6221.39968933817 indexB=9 distance=10.63243716829541 distance_initial=5.342148511658751 inter_energy=-0.08062048814917944 pbc="T T T"
C        0.27898999       0.12336904      -1.39507445       0.00288284      -0.00546600      -0.01997364
C       -0.04497896      -0.07567494       0.04412388       0.09676834       0.21021543       0.11838796
O       -0.59734955      -1.04165026       0.45523050      -0.06931165      -0.11905039      -0.01016180
N        0.33604354       0.92546171       0.84889709      -0.07828787      -0.11828099      -0.12799218
H        0.14839173       0.85246368       1.81781221       0.02823694       0.01874251       0.01867290
H        0.79590560       1.72813664       0.50527693       0.02923325       0.02093538       0.02875963
H        1.34254508       0.23939511      -1.52751998      -0.00378648       0.00595068       0.00470397
H       -0.20263056       1.01302820      -1.76756385       0.00611770       0.00204161       0.00366018
H       -0.06106989      -0.72829503      -1.95207972      -0.00162531      -0.00482278      -0.00249804
C        7.24433295       5.40653108       5.67403466      -0.00131429       0.00345910       0.00307885
C        6.03907117       6.19413200       6.18163447       0.03157556       0.00429478       0.03184968
O        5.06602594       6.21458290       5.43940231      -0.02819617      -0.00404021      -0.02166370
O        6.18944235       6.74104144       7.26664005      -0.01046513      -0.01094822      -0.02532415
H        7.91559649       6.09805080       5.18416377      -0.00104470      -0.00241467       0.00109250
H        6.94945796       4.65809349       4.95654203       0.00134182      -0.00176574       0.00073218
H        7.78046485       4.95545215       6.49369269      -0.00212484       0.00114952      -0.00332436
16
Lattice="30.0 0.0 0.0 0.0 30.0 0.0 0.0 0.0 30.0" Properties=species:S:1:pos:R:3:forces:R:3 dimer_id=4 label=CP energy=-11916.5005719966 chargeA=-1 energyA=-5695.03591942018 chargeB=0 energyB=-6221.39968933817 indexB=9 distance=11.587705086978682 distance_initial=5.342148511658751 inter_energy=-0.06496323824922001 pbc="T T T"
C        0.27898999       0.12336904      -1.39507445       0.00239234      -0.00388240      -0.01576451
C       -0.04497896      -0.07567494       0.04412388       0.07798930       0.16804863       0.09418373
O       -0.59734955      -1.04165026       0.45523050      -0.05602768      -0.09487117      -0.00840913
N        0.33604354       0.92546171       0.84889709      -0.06265989      -0.09412689      -0.10182197
H        0.14839173       0.85246368       1.81781221       0.02220115       0.01433823       0.01490777
H        0.79590560       1.72813664       0.50527693       0.02288570       0.01615705       0.02196995
H        1.34254508       0.23939511      -1.52751998      -0.00331153       0.00477724       0.00361299
H       -0.20263056       1.01302820      -1.76756385       0.00519234       0.00158550       0.00288355
H       -0.06106989      -0.72829503      -1.95207972      -0.00111192      -0.00378465      -0.00185100
C        7.79585714       5.95805527       6.22555885      -0.00086936       0.00263304       0.00246046
C        6.59059536       6.74565619       6.73315866       0.02404676       0.00286786       0.02331374
O        5.61755013       6.76610709       5.99092650      -0.02070495      -0.00268539      -0.01537478
O        6.74096654       7.29256563       7.81816424      -0.00835550      -0.00852902      -0.01913820
H        8.46712068       6.64957499       5.73568796      -0.00093852      -0.00228043       0.00098305
H        7.50098215       5.20961768       5.50806622       0.00100865      -0.00124748       0.00078020
H        8.33198904       5.50697634       7.04521688      -0.00173691       0.00099990      -0.00273586
