3072
Lattice="24.830476 0.0 0.0 0.0 24.830476 0.0 0.0 0.0 120.0" Properties=species:S:1:pos:R:3:momenta:R:3:forces:R:3 Origin="0.0 0.0 -50" energy=-480827.09375 pbc="T T T"
H       -2.71672164      10.76745637      -8.52858274       0.27049974       0.04928046      -0.18082272      -0.02549589       0.32087308       0.19944337
H       -3.97517439       9.91347517      -8.82603816       0.10991569      -0.13184197      -0.05465474      -0.44345349      -0.26174703      -0.50461835
O       -3.20104020       9.95807741      -8.25817909      -0.23743309       0.36110650       0.08276930       0.21916796      -0.17263040       0.36892301
H       15.34292385      27.41735112      -3.09517358       0.12430215      -0.18089124      -0.12933766      -0.12860760       0.15382345      -0.10684565
H       14.37528246      28.42614088      -3.74444921      -0.03677637       0.11456389      -0.01178876      -0.14404121      -0.01316629       0.32080725
O       14.70733148      27.51416510      -3.84788447       0.56516084       0.42395463      -0.01564421       0.36090320      -0.15858957      -0.07059284
H        9.15111170      12.82814114       6.68430997       0.14537330      -0.05037971       0.04900828      -0.22997360      -0.16694748      -0.58025861
H        9.90294463      13.10236718       5.41062366      -0.22464935       0.08096067      -0.20052697       0.16567835      -0.17167524      -0.53483641
O        8.98685099      12.96201918       5.69548295       0.80034377       0.86192158      -0.72079459      -0.33172548       0.12421030       1.41684890
H       13.11744579       7.85089492      -5.79678048       0.10620390       0.17500383      -0.29150004      -1.51831257       1.57515955      -0.81543034
H       13.03813789       6.35778679      -5.43339052      -0.10072063       0.20601040      -0.02970326      -0.77540809      -0.09335405      -0.23919311
O       13.59278346       7.14796857      -5.40968050      -0.06077152      -0.47206650      -0.20514869       2.06071186      -0.97558433       0.96160120
H      -19.00106832      26.28259353       2.60233485      -0.05156791      -0.25289844       0.08433959      -0.98960531      -0.30335921       0.87824082
H      -18.88855920      26.49112696       1.09994500      -0.07317918       0.10338833       0.23028859      -0.27446601      -0.14053167      -0.61059403
O      -18.35696318      26.39961168       1.90877165      -0.46735396      -0.23414698      -1.04024005       1.17439163       0.67917109      -0.32419774
H       24.53468150       5.18118015      20.62202089       0.22829130       0.03476837       0.12059600       0.74578995      -0.14722180       0.65777367
H       25.07466346       5.41692817      22.12740320       0.10429563      -0.14095450       0.13028072      -0.35195613       0.05952488      -0.08779229
O       25.30940105       5.08110553      21.24149542       0.29781388       0.96586506      -0.29774938      -0.13207662      -0.04754083      -0.73081452
H      -20.20121009       7.52794351       5.13280504      -0.29625557      -0.01671990       0.01933402       1.52868807       0.49608552      -0.55067468
H      -21.32272338       6.93626178       5.78593593      -0.20225437       0.16861367       0.12871341      -1.49711823      -1.78221595       3.10055661
O      -21.11688565       7.32270832       4.98211045       1.08180885      -1.19814263      -0.18596906      -0.16145810       1.10803068      -2.72067356
H        4.37050005      19.75904325      -0.20779409      -0.10207356       0.02613263      -0.30008856       0.35276762      -0.15744624       0.23472375
H        3.39756736      19.82638586      -1.31945298      -0.12564486       0.19664022      -0.12113378       0.30224615      -0.07254027      -0.17937268
O        4.22487602      19.32809305      -1.06802788      -0.65173616       0.07274259       0.22680982      -0.80693465      -0.26239786      -0.01038264
H        9.31514714       5.47415466      13.68199599       0.15885363      -0.19968451       0.09272063       0.66650164       0.58097160       0.23922022
H        8.15999207       4.85307309      12.90336177       0.14647943       0.08662556      -0.06147458       0.05337545       0.08372959       0.94170767
O        8.51738416       4.96379433      13.84593392       1.39662681      -0.15826173      -0.32346068      -0.55322945      -0.39930591      -1.70981991
H       -8.53937506      22.11879841      -6.10449989      -0.05179631      -0.14558570      -0.05109397      -2.05036616      -1.66751420      -1.90134799
H       -7.29584833      22.86597197      -5.93253410      -0.04198419       0.33720880      -0.02638580       0.38249645       0.33226851       0.13539919
O       -8.09343047      22.59517522      -5.44979243       0.12616430      -0.38043019       0.11196974       1.54728270       1.04970884       1.82562840
H       -5.09355815      17.06404244      -2.83377582      -0.19015772       0.10670457      -0.19592582       0.08564752      -1.82054472      -0.34932861
H       -6.13688834      18.10631560      -1.96367549      -0.06634488      -0.17442542       0.28566214       1.57769549      -0.58395964      -1.60833371
O       -5.27832253      17.96871403      -2.61315201       0.88024424       0.19080603      -0.62726975      -1.33724248       2.44160771       1.67083168
H        4.55122118       5.00823845      -6.87077111       0.14662833      -0.11622447       0.03758273       0.16191481       0.27856350       0.13168362
H        4.60707553       3.50464607      -6.55132126       0.31526926      -0.06061756       0.10703134      -0.30413544       0.41469499      -0.36424750
O        4.12597162       4.17398976      -7.11877252       0.28586022      -0.71223419      -0.27389898       0.78029776      -0.86209649       0.36834434
H        8.09658093      20.32533658     -10.32055428       0.23057677      -0.16583289       0.12011863       1.96455181      -1.77486765       1.06414318
H        9.70665781      20.17617588     -10.29197270      -0.03682625      -0.02888858      -0.32056494      -0.29019696      -0.16496858       0.04746700
O        8.90168541      19.72432546      -9.93691322       0.75604068      -1.01133120       1.16461082      -1.45229340       1.83441675      -1.35167253
H       11.50298683      20.15849185      -7.67285986      -0.03463411       0.02507584      -0.14695486      -0.83191347      -0.80693567       0.02470898
H       11.88278532      20.73432462      -6.22828936       0.06040202      -0.04221562       0.12061272       0.22919871      -0.39353859      -0.99094188
O       12.06031107      20.78488001      -7.22491891       0.40985029       0.11148732      -0.90079065       0.63535821       1.44540358       1.09873366
H        8.46591631      22.74937348       7.34072511      -0.27658331       0.21396658      -0.01551355      -0.33280838      -1.05020583      -0.20275411
H        9.60063392      23.69712017       7.59498539       0.02202047      -0.19379004      -0.06884166       0.15911040       0.30706334       0.02551298
O        8.63057793      23.66596182       7.58665498      -0.16588337      -0.27362802      -0.62293213       0.27230316       0.95029509      -0.23664859
H        6.43714533     -18.41060345      -8.69282433      -0.23827152       0.08072268       0.27433164       0.16120906       0.41438165       0.86225712
H        6.68988738     -19.55533434      -9.55588956      -0.16721299      -0.02288264       0.15603378      -0.11527589      -1.08425283      -0.99684840
O        7.09361628     -19.12585419      -8.78699492      -0.16731266       0.52670874       0.64952993      -0.50043786       0.69395554       0.08865374
H       -4.29754596       9.49140401      -1.30291510       0.18202644       0.09686741      -0.18877106      -1.60489261       0.11456442       0.51043141
H       -5.79265487       9.95975031      -0.76930850       0.01743851       0.10498922      -0.00075495      -0.65448868       0.54485005      -0.67786431
O       -4.97588964       9.52739429      -0.50908548      -0.23376408      -0.25586590      -0.41427716       2.11186290      -0.70781010      -0.00334846
H      -17.03771588      15.87187187      -7.21703130       0.10251696      -0.01781570      -0.28940274       0.21263802       0.40068564       0.86977375
H      -16.03994830      17.09783098      -7.01714701       0.13824357       0.00950918      -0.16007425      -0.20269242      -0.41547006       0.32386214
O      -16.43723278      16.32244486      -6.54183917       0.69129500      -1.19867912       0.02954481       0.20144889       0.22110927      -1.04200017
H      -27.65741017      24.24896078      -2.15505467      -0.16601554      -0.06369183       0.07251135       0.67683756      -0.38136744      -0.05426635
H      -28.47289239      25.37490002      -2.63346970       0.14412284       0.15481854       0.14554927      -0.11453817       0.42438263      -0.10570036
O      -27.84315521      24.72175409      -2.99245504      -0.90214240      -0.00892487       0.45431967      -0.13605173      -0.03456016       0.22510254
H       -1.64322705       7.39917248      -6.74780349      -0.07956900      -0.21206552       0.11750945       0.10343646       0.37956992       0.08903786
H       -2.27745406       8.75293289      -7.13231208      -0.09750560       0.10953507      -0.05819988       0.27604446       0.09801809       0.31802225
O       -1.64256467       8.35906180      -6.48246363      -0.13346106      -0.56062976      -1.09204412      -0.25603163      -0.51981652      -0.36052057
H       -9.01067312       6.34363967     -13.90306353       0.06951159       0.04323139       0.00691540       0.04805437      -0.50252265      -0.20919922
H      -10.25424425       6.14364718     -14.86643118       0.25655405      -0.00190451       0.28812041      -0.35560632      -0.79086524      -0.52062005
O       -9.84804750       6.72662861     -14.23233562      -0.34203419       0.10257392       0.05784600       0.26435530       1.05680680       0.87698144
H      -21.34954379       7.64879603     -10.98268267       0.14876179       0.15086420       0.31795604      -0.51316577      -0.08750996       0.12551580
H      -21.04295217       9.02549807     -10.25900824       0.02756776      -0.25747196      -0.47453283      -0.50298619       0.18577097      -0.03777584
O      -20.67885411       8.12316946     -10.47077276      -1.62620293       0.04356237       1.12866274       0.73243916      -0.49133670      -0.03235628
H      -16.21658318      26.75963894       9.36529352      -0.15015163       0.18366483      -0.26187456       0.01538587       0.35084665      -0.15787607
H      -15.96462910      27.43891560       8.01514436       0.23661117       0.30694039       0.07640634       0.63693720       0.19796053      -0.66987544
O      -16.65003621      27.33927525       8.67268923       0.75080465       1.14101289       0.83808776      -0.81394529      -0.38122275       0.65099037
H       -1.82424946      15.75092981      -0.61979992      -0.21685912       0.19569932      -0.24487831       0.67444146      -0.59024596      -0.77360296
H       -3.02512483      16.26956118      -0.00162526      -0.08339823       0.06557555      -0.35001947       0.73240173       0.48321983       0.67038363
O       -2.02842407      16.33346535       0.11947900       0.24068936      -0.95378466      -0.61797504      -1.29733145       0.09220730       0.39295787
H      -15.84839917       3.22360122      -9.15584311      -0.14658713       0.00400280       0.01015062      -0.13465802       1.45500910       1.17404926
H      -15.54266930       2.82136138     -10.60992065       0.19370203       0.04933467      -0.20450943      -0.07760577      -0.05173633       0.31846407
O      -15.67895506       2.47440491      -9.70267733       0.01290922       0.05480143      -1.35161643       0.27051663      -1.41989779      -1.31870341
H      -22.49761940       9.97506948      -8.99892249       0.05996422      -0.33328219       0.03973373       0.59037423       0.24650665      -0.47088850
H      -21.17052484      10.89037558      -9.30349745       0.23194396      -0.23859220      -0.25226516      -0.56132352      -0.36489451       0.00786443
O      -21.90871490      10.35989132      -9.71309467      -0.37657215       0.08716819       1.07268583      -0.12687150       0.21289936       0.18413219
H      -12.91675560       8.19768148     -12.09118214      -0.08039312      -0.21497235       0.16243003      -0.29839677       0.63149744       0.39156917
H      -13.41308127       9.22165053     -10.89889401       0.13191609      -0.03692795      -0.16513153       0.44303522      -0.54063940      -0.79014409
O      -12.93810076       9.14719409     -11.77042903       0.72476231       0.58631046      -0.40212307      -0.12265679      -0.29381865       0.58557200
H        6.79505150       0.71344714       6.44077222      -0.14214252      -0.03392221      -0.11256994       0.00773137       0.20113435      -0.07641077
H        7.00687383       1.54350514       7.75002910      -0.09411585       0.07038328       0.04282650       0.57653064       0.12751876       0.38689369
O        6.31426229       1.12339100       7.19468624       0.02709972      -0.27792532       0.41848022      -0.63638562      -0.14114691      -0.23488702
H      -15.53732044      12.38760942     -10.18816363       0.03902021      -0.00040018      -0.00265266       0.82777852      -0.61758357       1.28175163
H      -14.90679965      13.09270330     -11.39778395       0.10634459      -0.09171526      -0.06664611       0.70197034       0.28496003      -0.05335948
O      -15.66001346      12.56287240     -11.11171521      -0.48048975       0.25125156       0.17594930      -1.05278218      -0.09016763      -1.42821586
H       12.45997211      13.83274331      -9.60944694       0.13503292      -0.26181193      -0.07653295      -0.60944104       0.49363831       0.20566493
H       13.57562539      13.89559793     -10.64837698      -0.00838419      -0.12516106       0.05554922       0.09664174      -0.53614318       0.96930790
O       13.35489048      13.51711695      -9.75307172       0.02170998       0.50873216      -0.85690929       0.69501352       0.03593621      -1.13587809
H        7.81912256      20.96089168      -7.29647597      -0.25297011      -0.03714121       0.07150391       1.05093789       0.73369557       0.03742421
H        6.54565740      20.42764869      -6.73482199      -0.08525805       0.02168885       0.08211043      -0.06586544      -0.06329411      -0.55815458
O        7.07626350      20.43299836      -7.57667835      -0.81663001       1.51735946      -0.18909369      -1.44021320      -0.51917028       0.59274250
H      -10.04682732      19.90787077      -6.16207809      -0.12912673       0.11504476      -0.15032358       0.10133114       0.26968771      -0.05604403
H      -10.37126222      20.47029042      -7.53813126      -0.08783501      -0.03058284      -0.07942822      -0.45076022       0.24393098      -0.40094006
O       -9.63452519      20.38588958      -6.92471918      -0.02777173       1.18105438      -0.44981823       0.30330509      -0.22263102       0.51504856
H       -9.92323520      11.57721346      -7.03156544       0.01951505      -0.08585307      -0.12620939       0.66411960       0.00174756      -0.55150330
H      -11.24809278      12.14608744      -6.72154655      -0.05559131      -0.00106600       0.24062364      -1.42034090       1.30186069      -0.31118777
O      -10.62634038      11.51552662      -6.38496789      -0.75265997       0.04012888       0.47089572       0.70978475      -1.07978749       0.80288976
H       -5.23102119      15.07607644      -0.03890804       0.17112234      -0.12124371       0.43933642       0.30462274       1.18540490      -0.22199592
H       -5.10151168      16.17146292      -1.16993396       0.11173578       0.17983917      -0.24820387       0.06199691      -0.26069394      -0.00583699
O       -4.95464832      16.03138146      -0.21519757      -0.34905848      -1.38092028       1.03960376      -0.22669214      -0.94666463       0.39393741
H       -8.91789483       2.30042750     -11.34235530      -0.49784001       0.02618486       0.13880178      -0.26236174      -0.17608833       0.65428132
H       -9.00338299       1.97655867      -9.76813327      -0.12600931      -0.03753442      -0.18648074      -0.28653362       0.03553640      -0.79706544
O       -9.47118806       1.86457768     -10.64473251       0.80529752       0.40038912       1.21023475       0.60636991       0.31417441       0.55644822
H        8.86862032      16.45178275      -3.29068577       0.23226321       0.41048833      -0.07948280      -0.70257425       0.71959752      -0.03101701
H        8.37795978      16.88416027      -4.68320293      -0.00253936       0.06728052      -0.09290692      -0.57814693      -0.04422281       0.05507335
O        8.15507350      17.00063505      -3.72699838       0.10935942      -0.18723492       0.07762984       1.01252508      -0.84527385      -0.09124480
H       10.65176018      20.39932012      -4.62049003       0.21053315      -0.30525176      -0.41430483      -0.33682036       0.20857850       0.37577716
H       11.58852459      19.25316561      -4.48323028       0.06284691      -0.26063547      -0.07695849       0.36791411      -0.27841252       0.13465315
O       11.60402386      20.22750899      -4.49401117      -0.35215185       0.51556332       0.38465817      -0.44811219       0.02926972      -0.51905346
H       11.80379501       9.30500193      -6.93178102       0.09987177       0.09763854       0.33492593       0.09434018       0.55791992       1.15996075
H       12.87940448      10.25508417      -6.37250053       0.19351549       0.41363179       0.17325053       0.95802844       0.62987614      -0.00673220
O       12.15677259       9.69443647      -6.07572532       0.36841146      -0.28049473       0.36153221      -1.20225072      -1.41443896      -1.07459772
H        7.08841430       0.05085845     -13.83887594      -0.10774511       0.17499217       0.12998451      -0.37045255       0.63907695      -1.57502413
H        7.94398237      -0.41622119     -12.77206463       0.13471258       0.08489069      -0.09687383      -0.79522085       0.05507124       0.34668666
O        6.96115336      -0.28440666     -12.96577192       0.36480681      -0.74938918      -0.60584416       1.15947723      -0.53381109       1.33691895
H      -10.61810334       8.22307024     -11.23055351       0.13350605       0.27586436      -0.14123948       0.60398751      -0.43875995      -0.07646638
H      -10.19706801       7.17973426     -12.26614661       0.01281777       0.17714520      -0.48164020      -0.15849665      -0.46094179      -0.66108197
O       -9.88445544       7.59845250     -11.45761072      -0.55261062       0.65270616      -0.95245177      -0.86134070       1.09854007       0.34735313
H        4.46613645      10.23320285       2.73702823      -0.04098202       0.00378100       0.21406499      -0.46194267       0.07394391       0.67570615
H        4.04251380       8.83309550       2.10916898      -0.09802315       0.06086874       0.22010529      -0.47888193       0.18682203       0.21710530
O        4.74993429       9.49075829       2.19801351       0.39173825       0.35610798      -0.28727363       0.97715658      -0.27865341      -0.54189247
H      -15.76354697      16.87066891      -1.10809474       0.10992730       0.15774795      -0.12571824       0.02057171      -0.41312987      -0.53532267
H      -14.47261892      16.05727906      -1.23238038      -0.28319862       0.14591276       0.06826736      -0.19229542      -0.11504620      -0.04921911
O      -15.44471680      15.95083002      -1.35927288      -0.51256978       0.01154403      -1.02311670       0.49328834       0.62330759       0.49278301
H        1.07360316      19.86939807     -10.20023787       0.06586068       0.11854670       0.16747828      -1.20920002      -0.38287568      -0.57429874
H        1.60169488      21.16692955      -9.77769018      -0.34548428      -0.01548883      -0.27280483      -0.22758414       1.29827404       0.89367682
O        1.86123367      20.41012212     -10.28099983       0.52965099       0.96709369      -1.09557666       1.16273427      -0.85163552      -0.31494039
H       -6.29455774       9.16268070       3.09316000      -0.19069829       0.02252584      -0.32330568      -0.49463940       0.86854738      -0.05075710
H       -6.00389927       7.90051216       2.28742988      -0.22923626      -0.22591246      -0.14512729       0.22245203      -0.25925651       0.02608082
O       -5.89618685       8.28824562       3.18378989       0.09052547      -0.38041114      -0.14761526       0.36803478      -0.69394267       0.17023501
H      -27.47338042      -5.21226464      -0.99188409      -0.24596376      -0.27770686      -0.30083687      -1.11183238      -0.76702297       0.35150579
H      -28.79687783      -6.12547032      -0.62409496       0.10793646      -0.16185046      -0.04802175       0.43725300       0.23779304      -0.57645202
O      -28.13630900      -5.48660816      -0.30058432       0.15744211       0.66154504      -0.44344092       0.67573065       0.50669682       0.09888671
H       -7.09906490      17.58551081      -0.34763557       0.36885253       0.16739030       0.15365404      -0.34986287       0.21353164      -0.11518667
H        2.25047231      19.28937779      -8.85071450      -0.05570228      -0.11566188      -0.07142302      -0.07728209      -0.49095452      -1.38522029
O       -7.36465698      18.21839480      -1.04152933       0.97085506       0.39400283      -0.14995469      -0.24119255      -0.15078729       0.18142453
H       17.90477918       1.55361121       3.93834646      -0.12345061      -0.01728997      -0.27161272       0.88116848      -0.22152568       0.72659212
H       19.41972412       1.01991614       4.09476815      -0.10280449       0.06395082       0.04506515      -0.21148777       0.25830570       0.13617373
O       18.52580735       1.03541037       4.51808081      -0.44450117      -0.08376633       0.76950072      -0.78051597      -0.12973598      -0.40069816
H       13.30104258      16.08442749      -5.33476795      -0.12510076      -0.27121626      -0.10015627      -0.50030065       0.58667475       0.77103978
H       14.47417434      15.13628249      -5.75975943       0.50409980       0.09077887      -0.29319427      -0.47288153       0.54441750      -0.16403766
O       13.70136167      15.69027494      -6.11756678      -0.23917314      -0.14851779       0.03294244       0.34797180      -0.78984392      -0.75829577
H      -10.71452792      15.54083978      -2.17652778       0.08184267      -0.18986399      -0.08990593      -0.82831478      -0.36380541      -0.47373146
H      -11.73008778      14.44917560      -2.90414348      -0.10793847       0.14832393      -0.04325863       0.42919886       0.84813178       1.04706836
O      -11.66213253      15.23465647      -2.23355859       0.11581838       1.43379455      -0.08454412       0.31938228      -0.48791304      -0.30106452
H        8.01118198      14.67979711       5.85390614       0.13576868      -0.12453686       0.26201424      -0.07728086       0.38879365       0.67444980
H        7.58371494      15.94633298       6.82662731       0.00399020       0.12567146      -0.25090470      -0.14680740      -0.24151719       0.99731457
O        7.76780213      15.63841518       5.93680332       0.50873475      -0.78550019       0.13201616       0.25602058      -0.30353194      -1.79656911
H        3.59875415       4.54208501       1.34397936       0.09264540       0.09841130      -0.22965457       0.14950934      -0.87436485      -0.97641933
H        4.50340979       4.13846804       0.10036282       0.09149173      -0.24157963      -0.09926867      -0.01027120      -0.01593230       0.28482157
O        3.62412975       3.94234016       0.52023939      -0.04097056      -0.09627169      -0.21272497      -0.49523655       0.98704338       1.04237878
H       19.10170254      13.24138208      16.22322884      -0.01447031      -0.07904400       0.00109869       0.42782012      -0.89454478      -1.80106795
H       19.95989570      14.05368582      17.33690799       0.04910722      -0.12401920      -0.25797848      -0.86821455      -0.12238863      -0.47914106
O       19.04856484      13.70355325      17.04392753       0.13343890       0.48425404      -1.55930351       0.32969847       0.89465821       2.41476202
H       -7.68150181      -7.34528188      -9.99073791       0.21876287      -0.08388216       0.07943343      -0.12061731       0.02522090       0.30615360
H       -7.53387211      -8.39145683     -11.13551438       0.25890817      -0.09539244       0.13747441       0.13864705      -1.08792758       0.05501650
O       -7.59788025      -7.45555343     -10.96481773      -1.42125653       0.11761843      -0.34334314       0.12049773       1.00048971       0.12588112
H       -6.47687740       5.57033624      -7.21832463       0.04718767       0.01737379      -0.15649478       1.05765295       0.43811339       0.05576969
H       -5.65346009       6.88256359      -6.88771043      -0.29629999      -0.14301688      -0.14808177      -0.15922317       0.79245234       0.04820186
O       -5.55423866       5.92736208      -7.03034851      -0.07261577       0.86139915      -0.01640030      -0.90087187      -1.05504620      -0.27324903
H       12.77075029       6.40982062      -9.09925555       0.17887122      -0.09353973       0.22264698      -0.21001764      -0.48459548      -3.28772712
H       12.87004594       5.95720317      -7.81044004      -0.21509540      -0.18176481      -0.13784199       0.27688470       0.35256758       1.06032908
O       12.89338445       6.81749978      -8.27775319      -0.07103428      -0.57707825       0.44183878       0.04387295       0.37856448       2.32440257
H      -18.42725742       2.26837783      -5.54411870       0.02521946       0.06619734       0.25318146       0.03997468      -0.11391139       0.70761210
H      -19.57313317       2.45275578      -4.38404320      -0.08435994      -0.12083444       0.08416118       0.35164130       0.49963087       0.93708181
O      -19.35429607       2.11443472      -5.25516469       0.67500750      -0.66736449       0.34194446      -0.59779996      -0.25154808      -1.60137391
H       17.65529727     -20.12700859     -13.29200299      -0.01956627       0.06009392      -0.10812605      -0.28739437      -1.19570923       0.34417695
H       17.97850834     -18.80777878     -13.85136071       0.13741201      -0.00908883      -0.06803404       0.71368802       0.89906007      -0.64593649
O       17.47398071     -19.19626671     -13.14402521       0.47024800       0.81045161      -0.96062252      -0.51185340       0.49843314       0.15708858
H      -10.88676267      15.89967584     -11.89981269      -0.26796999      -0.21009956       0.09123949       0.96134639      -2.17812705      -1.24145067
H      -10.61658753      17.33704655     -11.59509054      -0.17014226      -0.10741897      -0.12112705      -1.65384364      -0.86472958       0.44260091
O      -11.30026476      16.56857428     -11.40076269       0.32370549      -1.07634422       0.11369270       0.47321603       3.02118707       0.53401566
H        4.50582711      25.30864503       0.04932243       0.08365830      -0.26202160      -0.14148907       0.12923172       0.75071859      -0.61506271
H        4.50709171      26.56650293      -1.02633236       0.26954379       0.08444151      -0.00336378       0.67338687      -1.09052396       0.83472747
O        5.06688829      25.88974228      -0.52618724      -0.35326516      -0.19169474       0.49991084      -0.50094891       0.42159951      -0.12609446
H       -1.14416134      11.65932997      -3.34009148       0.31234509      -0.06158941       0.03646308      -1.34707260      -0.07516123       1.60210264
H       -1.15332345      11.90229342      -1.76822668      -0.03685147      -0.23179328       0.27595809       0.37153861      -0.24841061       0.31396097
O       -1.76279639      11.79713276      -2.51651341      -0.33441193       0.24313035      -0.21337805       0.67001784      -0.06561153      -1.59685934
H        0.35454488      18.27243527      -0.19558038      -0.03026224      -0.03417276       0.19733205       1.02793038      -0.12537724      -1.06673694
H       -5.29048306      14.72538218      -3.00500063      -0.01931181       0.12459316       0.11283428      -0.54684782      -0.43976295       0.16878228
O       -4.63827404      15.38493964      -3.24365037      -1.38539762      -0.31393325      -0.27647269       0.46638748       0.63430166      -0.04991723
H        0.66291748       9.64427560     -13.05760047      -0.15310950       0.16017897       0.19654271       0.15909466       0.11335547      -1.92303669
H        1.56579694      10.02208894     -11.86246132      -0.09890448       0.01913841      -0.13360924       0.18201950       0.05621175      -0.07674625
O        0.69082494       9.69786180     -12.12487449       0.11088118       0.04845779       0.17610539      -0.24989900      -0.25149316       2.08969712
H        0.99937278       5.51853675      -0.88017118       0.11533625      -0.03768334       0.08534391      -0.71003431      -0.97066832       0.06126998
H        2.54675716       5.09204945      -0.34284323       0.07680455      -0.08032569       0.01745089      -1.26191604      -0.14700982      -0.25283822
O        1.87245685       5.79567460      -0.62537495       0.08410516      -0.34945194      -0.47673529       2.22122526       0.96560055      -0.05382355
H      -19.06595997       8.27534998      -0.48513284       0.17881920      -0.51085787       0.30979814      -0.27011353       0.14444426      -0.24507876
H      -20.51047754       7.77209050      -0.10210956       0.41234649       0.06724967       0.05380797      -0.63362026       0.34951961       0.40907305