8784
Lattice="30.741 0.0 0.0 0.0 33.939 0.0 0.0 0.0 83.394157" Properties=species:S:1:pos:R:3:momenta:R:3:forces:R:3 energy=-2458906.25 pbc="T T T"
Ti       2.24315894       5.46837761       0.52910675       3.72159212       1.33088952       0.56325324      -1.25452888      -0.33792162       0.49409053
Ti       2.17262039       1.65659565       0.47536129       3.20915784      -0.34332008      -3.23168150       0.18943977      -0.12049463      -0.00998586
Ti       3.54030021       1.61296821       3.96885099      -1.60695136       1.18253371      -1.65721185       0.92419749       0.02994487      -0.03493631
Ti       3.54834665       5.35004852       4.09180874      -0.50523566       1.38032613       0.48422813      -0.98210263      -0.15721488      -1.01276350
Ti       5.80421602       3.61599211       2.99726308       1.18928372       0.78034183      -3.11692838      -1.02235830      -1.56405032      -0.96047473
Ti      10.84976786       1.74729337       2.94441451      -3.10843612      -1.48068191      -1.13774554       1.03787661      -2.18894958      -0.60916430
Ti      11.01550575       5.44574588       3.16394211       0.60012828      -1.30376150       4.15283361      -0.77282917      -0.61177182       0.39485103
Ti       7.30462047       3.51219149       0.42761766       0.57311717      -0.48108293      -0.46621932      -0.95926172      -0.27844387      -0.23423155
Ti       8.71622046       3.41374599       4.01812472      -2.22073721      -0.13430623      -0.37604079      -0.26948735       1.35401368      -2.19807220
Ti       2.09692867       9.18365168       0.56490837       0.79991477       0.75276334      -1.42702469      -1.59671605      -2.11331153       2.28613997
Ti       5.60162492      11.15282762       3.13959237      -1.08499290       3.24350380      -0.24980233      -1.26237202      -1.04680836       0.34420973
Ti       5.70282661       7.35174374       3.15752282       1.82589211      -0.98628142      -1.94283000       0.00593266       0.52372926      -1.89155996
Ti       3.38651879       9.06920646       4.11157118       0.21176004      -2.38882660       0.60050066       1.58140397       1.58921504      -2.10112143
Ti       0.57265522       9.13839977       3.29205427      -1.33373058      -2.60168400       1.51488772       0.12741120       1.66901350      -1.94107032
Ti       7.32339970       7.31703832       0.44662174       0.85417007       2.22639423       0.70733759      -0.67385316      -0.37580836       0.30865282
Ti       7.23229994      11.03503805       0.67855116      -1.67983499      -1.30828990      -2.04181630       0.33706623      -0.62282026      -2.36954284
Ti       8.66359814       7.23890740       3.86485261       1.17062842      -0.50244559       0.68509982      -0.48772085      -0.24960339       0.00349161
Ti       8.69499896      11.03392668       4.06284805       0.06687413       0.61688940      -1.33368000      -0.18603086       0.23027058      -1.00771248
Ti       1.91029336       5.44699129       6.62295374       2.44823067      -2.08398818       1.43315177      -0.74076742       1.44077373      -1.78196883
Ti       4.76606748       5.25418592       7.61510787      -1.58882904       0.26526257       0.87375036       1.60163176       2.13579535      -1.21428072
Ti       2.06171259       1.67879183       6.92012489       1.40547829      -2.13012079       0.94188757       1.50024295      -1.77260137      -0.97175896
Ti       4.95956997       1.66473405       7.37999440      -0.99892975       1.18619019       0.10089198      -0.77304101      -0.05136493       0.28712732
Ti       7.14441810       3.62308972       6.36497378       2.65922878      -2.91235425      -2.28119644      -0.81095803       0.40778479       3.45107889
Ti      10.11693293       3.54641357       7.49085007      -1.53781340       1.77633220      -0.72904152      -0.68820262       0.17951216       1.54056132
Ti       5.00362292       9.10542703       7.41845780      -0.48458829      -0.58367932       1.45676884      -1.40060699       1.64566660       0.26351094
Ti       2.04267355       9.18800476       6.75480921       0.48536179       0.35910448       0.15172575       0.02488725       0.23131835      -0.13919029
Ti       9.98943819       7.36780164       7.41387620       1.82502163      -1.55584187       0.39536931      -0.73385537      -1.04509187       0.39270991
Ti       7.17473378       7.32706786       6.60229337      -1.46649289       0.08985012       0.38549899       0.32936954      -0.82642382       0.48883274
Ti       7.15794236      11.12612002       6.55152722       0.83813319       0.50075720       1.70656061      -3.17346692       0.56382525       1.49056542
Ti      10.09365961      11.18832518       7.72957184      -1.42410186       3.78575082      -0.97495535       0.15810321      -1.18548846      -0.05169654
Ti       4.80334126       3.55135743      76.76591417      -0.31808902      -0.68430788       1.86165776       0.65000474       0.27480930       0.34363699
Ti       1.79245351       3.36883267      76.16275656       0.61164250      -1.17751961      -0.28422881      -0.71114796       2.40772772      -2.01292419
Ti       9.78860105       5.44427937      76.75286722      -0.66750699       0.96839317       1.78755579      -0.63604766       1.00744367       0.56397676
Ti       6.75688031       5.58694014      75.57545323      -2.55326625      -1.16765417       1.79510682       0.01238689      -1.67033994       0.88883913
Ti       9.57042184       1.75354056      76.59421829      -0.83858358       0.22425427       0.64021782      -0.58368796      -0.88262331      -0.36737356
Ti       6.73130015       1.63311999      75.64994213      -1.86496000       2.25488184      -0.01993676       2.41576743       0.40797457       0.01861483
Ti       8.20955958       1.56308101      79.23367298      -1.65086354      -3.17492331       0.63766702      -2.04316902       1.09542990       0.62839216
Ti       1.77953089       7.28705508      75.88408730      -3.41425123      -1.62447459       0.63243250      -0.38872039      -0.26757628      -0.43847698
Ti       4.61663649       7.39939203      76.82279951       1.22240236       1.32899847      -1.65112728      -0.30225649      -0.68451077      -0.37710357
Ti       4.68656392      11.06837841      76.64827360      -1.46082148      -0.13550545      -0.35741645      -0.42085388       0.52388459       0.28435218
Ti       1.91686896      11.24122450      75.77357269      -3.51683392       0.49100260       2.05808403      -0.71010286      -2.70925975      -0.02155250
Ti       7.06524029       9.17831811      75.87954016      -1.95451438       1.94654647      -2.75185084      -0.70715886       1.13341224      -0.40858835
Ti       9.79262943       9.12336239      76.73029071       2.60503525      -0.15308012      -0.79944261      -0.06764211       1.10167956       0.55807424
Ti       3.09067550       3.45555940      79.54209325       0.62503513       1.86030553       2.73234084       0.81008548       0.16458152      -0.65504056
Ti       4.31525922       3.60300505      82.92901088       0.54212453      -0.06135001       0.86624261       1.97457576      -0.80153489       0.25212374
Ti       6.07237418       3.55863737      80.27472920      -0.82454052       0.37864782       0.62567805      -0.21572348      -0.93578082       0.86406589
Ti       0.92859430       1.73854856      80.35071191      -0.40842859      -0.92820279      -1.05906780      -2.16427207      -2.21493030       0.08282762
Ti       8.16000803       5.38815686      79.23903515      -1.61408163       0.23693916       3.07742265       0.82286644       1.13780761       0.70218360
Ti       0.85391430       5.47214399      80.29086632      -0.97328523      -5.77763073      -0.55176411      -0.46159557       0.85596776      -0.60992277
Ti       9.60585040       5.31488737      83.00715123       1.20913426      -0.13159356       1.25566209      -1.03143013       1.58236527      -1.14713788
Ti       9.42341645       1.63448109      82.89585664      -1.13583842      -2.13150513       3.33123437       0.48912477      -1.10652590      -0.51692748
Ti       3.08688709      11.07018191      79.26099986      -1.89418802      -1.29666048       1.61671389      -0.00127515      -0.63190091       2.19942856
Ti       3.05602272       7.25261932      79.39554215       1.42955661      -2.58916670      -1.07302926      -1.01790500       1.25410640       0.96756542
Ti       4.29178065       7.35233874      82.97430640       1.59406613       1.79953836       1.39111418       2.29227114      -0.17331082       0.50906968
Ti       4.42143455      10.89681416      82.83111038       0.61991090       2.53896439      -0.51001891       0.63382101       1.55093825       0.58208758
Ti       5.91423244      10.94086093      80.30545099      -0.05863414       2.69958172       4.26485578       1.19547367       1.21895885       0.11474131
Ti       0.87152304       9.23865286      80.43312756      -2.80835246       2.73695947      -1.13420392       0.06346297      -1.29650378      -1.43347156
Ti       5.87473292       7.24608114      80.46133954      -2.40627208      -1.13679735       0.47640030       0.89149147      -0.39507905      -0.01229519
Ti       8.17764616       9.13198836      79.40635993      -3.00047171      -1.21665522      -0.37608879       0.36055946      -0.17115235       0.46447587
Ti       9.65052773       9.18917913      83.00687734       1.13273853      -0.80821686      -1.95253468      -2.49470067      -0.24561864       0.67913431
Ti      12.50391045       5.44594784       0.54238374       0.22809525       0.32706785       0.05044386       0.54659069      -1.07513261      -0.58853793
Ti      12.35182353       1.58092091       0.30306632      -0.22168676       1.54382636      -1.17901362       1.06564760       1.20664561      -0.80394924
Ti      13.66808688       1.65447942       3.78752269       1.17384542       2.13267607      -0.64690545       1.28116024       1.13391042      -0.62403595
Ti      13.93012107       5.47910082       4.15698083       0.23218097      -1.12359200       1.13986550      -0.30609471      -0.75751126      -0.13482711
Ti      16.07152351       3.59889528       3.08610001      -0.71410914       0.05514490       1.25139132      -0.70574194      -0.01512581       0.37940797
Ti      21.08499491       1.62457270       3.12854561       1.30468910       0.96659675       0.95796243       0.41595376       0.12888858      -0.67424214
Ti      21.08383980       5.51167221       3.02035739       2.74744370      -0.99829717       2.09107124      -0.07793239      -1.90175390       1.14087355
Ti      17.62740434       3.50333234       0.38141578      -0.81290532      -1.92072931      -0.22270537      -2.15785909       0.45437753       1.70187235
Ti      18.91599492       3.51645698       3.98718883       0.61659161       0.20279385      -1.29454842      -0.77634931      -0.05269041      -0.56180739
Ti      12.59661311       9.21441078       0.50328064       2.61980219      -0.29531900       3.56448407      -0.14163496      -1.38979197       0.18688394
Ti      16.00797442      11.03439418       3.21677309      -3.42636470       1.81503461       0.36845402      -0.62210321       0.65695494      -0.33620256
Ti      15.98382087       7.34007266       2.99881552       0.00512241      -0.78082521      -0.88441638       0.64640379       0.98539704       0.54250920
Ti      13.78036153       9.20705256       4.15612613      -2.82256774      -0.87261218       1.85366730       0.48928553       0.28436819      -0.34343144
Ti      11.00163965       9.27261398       3.02283002       0.53931130      -2.90737620      -1.59475198      -0.83811736      -0.39611199       1.17625654
Ti      17.59402577       7.37348700       0.40288868       2.04262728       1.05145831       0.93105198       0.57104522       0.13452095       0.44412008
Ti      17.46468797      11.12507068       0.49583605       0.05975017      -0.51635126       2.39787327      -1.08426905      -0.02066454      -0.52344698
Ti      18.87649767       7.22526257       4.14058146       0.48934985      -0.91163459       0.27119193      -1.00892854       1.00586128       0.08610946
Ti      18.86032656      11.07851253       3.84665228       1.95496473      -1.66109620       1.23755337       0.67093086       0.73142183       2.58664870
Ti      12.32342584       5.45057524       6.66537385      -1.95026516       0.02399971       0.78554313      -1.38619626       0.13327646      -0.20158952
Ti      15.17274026       5.43670263       7.70194010       0.10361268       1.01773335      -0.73540143      -0.13544074       0.32204324       2.73856497
Ti      12.26077957       1.65167676       6.47735934      -0.24386054      -3.64595892       0.86874446      -0.88513517      -0.08278482       0.53246003
Ti      15.29205344       1.65854130       7.36650973       2.02430299      -0.17907637       1.79671499      -1.88539565       1.26885712      -0.20299971
Ti      17.39371681       3.55316416       6.76894514       1.24347269      -0.47014734      -1.03540232      -1.22149777       1.62038684      -2.67200994
Ti      20.22685229       3.57780840       7.46053444      -3.19152554      -0.08310444       0.62026829       0.08442941      -0.43235201      -1.17228341
Ti      14.96735622       9.31916726       7.99043497      -1.27632639      -1.09080717       2.82188234       2.68472719      -0.89085722      -2.05559850
Ti      12.32540167       9.24093708       6.68168948       1.49018841      -0.19224356       1.31196291      -0.67865133      -0.04454993      -0.28553355
Ti      20.32705722       7.24396299       7.43832063       0.93325120       0.40225096      -0.09379262      -1.11177683       0.85941446       0.75097656
Ti      17.22527985       7.36081588       6.77101324       0.49749560       2.18900914      -0.66316874       0.28320649       1.18607378       0.47349849
Ti      17.43493179      11.11077939       6.74595031       0.21286918       1.04042995       4.97447703      -0.60734099      -0.18734206      -0.61879551
Ti      20.25883561      11.03413561       7.33671545       0.67285204      -1.59521635      -1.04107971       0.32250398       1.27012897      -0.34030029
Ti      14.86076813       3.62497607      76.85999017      -0.81731750      -0.93012266       1.44103868      -0.89527816      -0.82396942      -0.90223545
Ti      11.86840850       3.67404008      75.56270618       0.56536667      -0.80957267      -2.44077899       0.72385144      -0.36614260       1.20937729
Ti      19.94687350       5.51669980      76.88643345       0.09588708      -0.72444043       0.12637808       0.09245352      -1.45401692       0.01795234
Ti      16.96546467       5.44512649      75.84365185      -0.89022684      -0.79463192       1.17165262       1.10719287       0.65080130      -0.03932554
Ti      19.88851714       1.76051409      76.71593589       1.45293475       2.29030590       0.78155895      -0.36293021       0.93895853       0.19764057
Ti      16.97437377       1.72218327      75.66357176       1.67720944      -2.31548625       1.10949445       2.35213065      -1.12850690       2.11796784
Ti      18.43273888       1.65093037      79.44148859      -1.04549242       1.12861214       0.51597625       0.38652375      -0.51585221      -2.49278831
Ti      12.14563205       7.40309775      75.62775017      -0.09600787      -1.45763707      -2.81103803      -0.75302017      -0.34984356      -0.33820653
Ti      14.84065945       7.42174591      76.81314859       0.80542758      -0.04544399      -0.33405206       0.62962151      -0.47180060      -0.47712612
Ti      14.82363234      11.22886547      76.68076824       2.46880702      -0.33185360      -1.41643898       0.24333376       0.07389367       0.17418760
Ti      12.04760379      11.09557350      75.95974491      -1.37590154      -0.48034058      -1.06149861      -1.71810567       1.61112189      -0.93035507
Ti      16.84366819       9.23942131      75.51730655      -1.44353651       0.93482034      -0.34243646       1.74636376      -0.86192536       0.28998601
Ti      19.93935117       9.22206467      76.70037957       0.19137404       1.04889710       1.03773170       1.88437688      -0.22149310      -1.17410541
Ti      13.17453855       3.63197409      79.19126357      -0.53322647       0.64317384      -0.97762872      -0.70282888      -1.22844744       0.41036588
Ti      14.68939821       3.46800732      82.89953984       0.63262827      -0.06772081       0.29594629      -0.16468847      -0.30170926       0.45806670
Ti      16.15799845       3.52353573      80.30803217       1.82769073       1.39502633       0.05147925       0.06477031       0.69467115      -0.18716782
Ti      10.95758002       1.71586050      80.23308857      -1.15473011      -0.87710161      -1.16809531       0.97679639      -1.42724907      -0.06437394
Ti      18.37570105       5.44854651      79.51907539      -1.30333504      -2.32028520       3.96437540       0.49038509       0.34505093      -1.08522379
Ti      10.98441502       5.52703137      80.35722369      -1.37230807      -2.60545823      -0.89484938      -0.44092220      -1.13665104      -0.41386557
Ti      19.76867944       5.40986519      83.04036850       3.00803954       1.28690875      -0.10776774      -0.64971644       1.12692189      -2.04274607
Ti      19.81356462       1.73193028      82.91307152      -0.03754504       2.10270584       0.97494853       0.87684995      -1.50323749      -0.54008234
Ti      13.36066290      10.96338205      79.40374843       1.39807610      -1.80278829      -0.16090617      -0.36750183       1.21315157       1.38502002
Ti      13.20090850       7.25056840      79.32575727       1.84842248       2.65792274      -0.96050174      -0.07098919       0.74440324       0.65810972
Ti      14.74228404       7.15102243      82.99301720       0.75540964      -0.53725797       1.86626272      -0.41947171       0.79237908      -2.31944299
Ti      14.66757851      11.15069077      82.93459723       1.54972506       1.36037499      -1.48713547       0.83452272      -2.18435264      -0.43878832
Ti      16.24584255      11.04036371      80.23802799       0.42743932      -1.83920560       1.09666924      -0.68631893       0.47822869       0.98823273
Ti      10.99475066       9.20804748      80.35834699      -1.25266846       0.12205445      -0.50534567       0.01787560      -0.77208978      -0.19555612
Ti      16.13841549       7.34177685      80.28253589       0.23358268       0.89915919       2.83757766      -0.64103150      -0.51802444       0.53133512
Ti      18.49373405       9.20373386      79.29651995      -2.50941072      -3.07812486       0.78606042      -0.37259024      -0.58100063       0.64969301
Ti      19.79768186       9.31574219      83.00057754      -0.03262161      -3.17045420       0.98743410       0.14065847      -0.89583683      -0.46942961
Ti      22.62539218       5.56631516       0.43650055      -1.34782349      -0.57700513       2.13387965       1.83013022      -0.40244359       0.28858048
Ti      22.68955317       1.70893268       0.60815296       1.33656375       2.82826333       3.50757231      -0.49389231       0.26612064      -0.83416891
Ti      24.01166504       1.68873163       4.18988725      -1.61156654       0.16931912       1.78452960       2.59215403      -0.64665818      -1.94025195
Ti      23.94614807       5.36344699       3.89536642      -0.07362305       0.45975352      -1.03372594       1.82279074      -0.12373222       0.20861518
Ti      26.42441181       3.50656900       3.02984732      -1.91554679       0.71609073       1.20303062      -1.29045689      -0.55130470       0.75324988
Ti       0.72130949       1.70695046       3.25499541       2.08157009       0.53568479      -1.07167557      -0.81314826      -0.08177674      -0.33773422
Ti       0.51059514       5.55167798       3.02330779       4.41203245       0.19536382       2.94526407       1.85235178      -1.10899067      -0.00173548
Ti      27.75184597       3.69288287       0.35904001      -0.51475516      -1.37097773       0.47128359      -0.12115419      -0.79549569      -0.20155616
Ti      29.28805411       3.55102978       3.97007089      -1.24915029      -1.67084702      -0.52388737      -1.15089822      -0.64462024      -0.04439646
Ti      22.76568183       9.27620255       0.33854412       1.99563792       0.19227494       1.92938141      -2.09423089      -1.00839400       1.53812695
Ti      26.28380743      11.14355558       2.95588199      -0.68761905      -1.63175241      -3.16486073      -0.57837188      -0.89875448       0.79746175
Ti      26.12087505       7.30897563       2.99709986       0.71212628      -0.37543664       1.67026114       1.06889617       0.07191798       1.42606938
Ti      24.02185887       9.19643556       3.85043737       0.51765390       0.70983381      -2.82973568       1.20085144       0.85139072       1.02840805
Ti      21.06295385       9.17122241       3.14182172       0.84459930      -3.23941098      -1.73572053       1.96962762       1.16300333      -0.20849347
Ti      27.87064191       7.40937067       0.55101002      -0.02023096       0.79127051      -2.03838013       0.03249544      -1.28443837      -0.66436309
Ti      27.74776163      11.17379240       0.34957256      -1.01028732       3.17045708       1.79267311       0.74152046      -0.35155275       0.62534583
Ti      29.00671440       7.25746318       4.02228397      -2.23517505       1.09102834       2.15970971      -0.21916634       1.17785883       0.86377740
Ti      29.21878532      11.08172857       4.04502246      -1.09291757       2.02699381      -0.87022293       1.12830162      -0.02142229      -1.04123867
Ti      22.61300124       5.40741426       6.63531372      -3.08099698      -2.34549823       0.44118463      -0.55660009      -0.25457880      -0.49755231
Ti      25.33294543       5.54647599       7.51350559       0.73265188       2.29180694       0.85184520       1.97496784       0.70394635      -0.73278284
Ti      22.42449781       1.63765762       6.62069256       2.97446216       0.25731298      -0.81809720       0.35568953       0.68374354       1.00893116
Ti      25.40616449       1.81977756       7.77957327      -3.37275741      -0.65045300       0.54680834       0.13429397      -2.10249853       0.05182925
Ti      27.57224897       3.61817903       6.57698110       3.81752033       0.12175912      -0.77348028      -0.15960012      -0.60638887       0.99842882
Ti      -0.18392618       3.56502119       7.38424371      -1.62408940      -0.06876467      -0.13696391      -2.03917694      -0.07991070       1.95568490
Ti      25.39704037       9.28332669       7.60875291       0.68073642       1.23978931      -1.05857677       0.68522686      -1.21627593      -1.47180390
Ti      22.55799407       9.12148086       6.63952027       0.58574028      -1.96748755       0.38160300       2.05100799       1.94795513       0.46176353
Ti      -0.21589277       7.30318068       7.59327988       0.97887989       0.25279798       1.15965776      -1.69787753       1.60677814       1.00741231
Ti      27.75422120       7.25977369       6.67571368       0.76641714      -1.64824991      -0.20860516      -0.12312785       2.75589824       0.64051777
Ti      27.54461439      11.10114506       6.48765645       0.42837909      -1.23110591      -1.68533467       0.21251747      -2.22262931       0.36758709
Ti      -0.28453784      11.07317854       7.57309256      -0.31146811      -2.60310696      -3.70705265       0.52401292      -0.78672552      -2.00190163
Ti      25.13604296       3.71683642      76.82068790       1.69034356       0.32128277      -1.20436791      -0.89503932      -1.99593329      -0.89567983
Ti      22.31786245       3.72077366      75.85311183       1.68940488      -0.63215841       0.42395096      -2.13324118      -0.34810299       1.35074615
Ti      30.11818437       5.44435320      76.72426715       0.70300880       1.16131169       4.13305528       0.37154227       0.65186185      -0.14839363
Ti      27.40006579       5.45302881      75.73155712       2.51821888      -1.24019118       2.09108396       0.23718886       0.09181076      -0.68243253
Ti      30.33989421       1.59238297      76.81287058       1.05336981      -2.75896284       1.10486832      -2.96570373       0.63374555       2.14948702
Ti      27.33531597       1.78154848      75.84555826       1.79028853      -2.09328461      -2.07936546      -0.69072521      -0.04924442       1.47462535
Ti      28.59736273       1.68748234      79.42144697      -3.10736584      -2.09018861      -0.18430792       1.93092299      -0.63907331      -0.49419171
Ti      22.08262536       7.35005839      75.73410876      -2.32872416      -1.22224257      -1.88923316      -0.07085836       0.53550822      -1.28076839
Ti      25.03452206       7.43275631      76.74409033       1.50168876       2.75555208      -0.35745130       0.49316052      -1.07185495       1.09096611
Ti      24.91863939      11.04715108      76.70353998      -2.53861311       0.53215213      -1.16283642       1.13831329       0.80553281      -1.42289186
Ti      22.14599769      11.28148736      75.71565313       0.26174783      -1.60631471      -2.50363994       0.93493593      -1.20762634      -0.20594922
Ti      27.32706172       9.24341335      75.79802907      -1.06402784      -1.99104401       2.12912232       1.39344120       0.59626836       1.79670870
Ti      30.19050481       9.25936042      76.65856958      -0.09932856      -1.55089533      -1.60876171       0.34768611      -0.81072676       0.05719900
Ti      23.55885913       3.65695529      79.43179405       1.04390630       0.06208613       2.48280386      -0.16961296      -1.21332121       1.25312376
Ti      24.77809020       3.60436886      83.04181098       1.48331677      -0.25110347      -2.11256052       1.64054322       1.11135185      -1.44703794
Ti      26.53218652       3.65405740      80.20174958       2.23006541       3.54508397       0.20952481      -0.59830046      -1.06114471       2.23378015
Ti      21.33790744       1.67314998      80.35056261       0.49656075       0.93996627      -0.09019335      -0.03675298       0.70819724      -0.88093603
Ti      28.70661931       5.50899015      79.47632968       0.87902983       0.25713908      -1.35909821      -0.17876440      -0.15003951      -3.08783841
Ti      21.35396507       5.49321487      80.31218434       0.34695624      -0.96362974       0.50798939      -0.90779495      -0.90825617       0.05290487
Ti      30.02024426       5.42244515      82.81598887      -0.93941197       1.34214711      -2.56369066      -0.49309146       1.85760880       1.64893043
Ti      29.97983720       1.76060880      83.06044198      -0.24879211       0.95811208      -0.00218381      -0.06634906      -0.44140011      -0.63464248
Ti      23.52227469      11.09068723      79.35750145      -0.47080699       1.46833306      -0.16029250       1.24064207       0.48788920       0.05390613
Ti      23.48820811       7.36220805      79.45420877       1.40502166       0.66471972       0.83688333       1.29498482      -0.19296372      -1.18090379
Ti      24.94762668       7.32291289      82.81989670       0.14377462      -0.65717506       1.24491122       0.16342390      -1.30296826       1.75465989
Ti      24.79421261      11.07258905      82.94066509      -1.49483850      -2.49984736       1.40052775       1.66667521       2.14032674      -1.47004342
Ti      26.54792236      11.08319439      80.22009300      -0.02787936      -0.67648054      -0.41467198      -1.07363260      -0.76753926       0.27287889
Ti      21.30460619       9.27744741      80.24735469       2.33185389       1.97643633       0.86528137       0.37453115      -0.16876209       1.33964050
Ti      26.56408031       7.31065393      80.29210824      -1.80711755      -3.20447034      -2.31001568      -0.36629188       1.89341056      -0.36407417
Ti      28.76524610       9.24857854      79.34348082      -1.04055672      -0.62494422       0.67348082       0.17500386      -0.28089136      -0.70660019
Ti      30.02941514       9.31785886      82.87957110      -2.90738015       0.00974780      -0.35303614      -0.34614837      -1.74991059       2.66084814
Ti       2.18158056      16.70185797       0.69400068      -0.72891424      -0.19754297       1.08233992       0.77348971      -0.16673048       0.01013689
Ti       2.15350181      12.67959629       0.65342277      -0.39155036      -2.51929781       1.09541467       0.97861665       2.74991393       0.59585804
Ti       3.46620237      13.01547559       4.24844429       1.38734366      -0.05994709       2.70554216       0.01186061      -1.54184389      -0.50928622
Ti       3.54703439      16.71733145       4.03021096      -2.24570637      -2.14512329      -2.06989704       0.36725172      -0.40105748       0.58068389
Ti       5.80800800      14.90160653       3.23448768      -2.56408144       0.74057636      -1.76179366       0.32157376      -0.54107201       0.18844670
Ti      10.97298604      12.91044955       3.09192027      -1.26908460      -1.83745272      -0.25728319      -0.19103597      -0.66614854      -0.53143120
Ti      10.91178114      16.73178020       3.12010128      -0.09181326       0.12559059      -0.70178183       0.72314262       0.64973038       0.42357820
Ti       7.36315356      14.84617412       0.50792806      -0.00841109      -2.65146398       2.74850316      -0.22952126      -1.97327542       2.48689938
Ti       8.87764884      14.81919701       4.04520152      -0.95752460      -2.17682778      -2.63974626      -3.56919646      -1.46129251       0.22234228
Ti       2.25654977      20.45473125       0.51936502       3.13756998      -0.17109710      -2.91745385      -0.30474800       0.53638113       0.94285011
Ti       5.83688506      22.45482248       3.21048876      -2.35623705       1.89075595       3.84659630      -1.53480697       0.29460073       0.01559102