368
Lattice="10.024 0.0 0.0 0.0 17.3620773 0.0 0.0 0.0 29.60299847" Properties=species:S:1:pos:R:3:forces:R:3:F_std:R:3:F_diff_avg:R:3:F_DFT:R:3:F_CACE:R:3:F_diff_atom:R:1:F_std_atom:R:1 energy=-1664.6365966796875 pbc="T T T"
Li       1.03660885       5.13202683       5.09175600      -0.02823523      -0.01110086      -0.10378428      15.46145248       7.13228035     102.03355408      -1.32889280     -12.86800298     123.90366765      -0.00358855      -0.00047787       0.00784179      -0.00273446      -0.01158409       0.09740454      90.25277713     103.44453632
Li       3.01748217       7.87901216       4.83540646      -0.00808048      -0.04571475      -0.09087552      18.28324890       9.85850334      93.72080231     -39.49438761     -24.60098133     137.97115336       0.00067237      -0.00039030       0.00138543      -0.05845952      -0.03364287       0.10086378     120.40870378      95.99508354
Li       0.94777842       2.10027921       5.11229693      -0.00059025      -0.01335645      -0.08912154       9.10686874      10.96155262      96.40516663      15.24881642       0.75857983     127.91000246       0.00256221      -0.00374440      -0.00142838       0.02363837      -0.01124646       0.08875844      92.92011583      97.45279292
Li       0.81911567       6.45297160       1.88863459       0.06392208      -0.03331113      -0.08896371      22.58834076      11.31461525      56.88802719      24.64979052     -19.01710354      18.89944426       0.00281223      -0.00076237       0.00087389       0.01211104      -0.01920121       0.01393507      24.43467026      62.24549216
Li       0.22079273       2.50197465       1.90073186      -0.00407776      -0.03184149      -0.12328384       3.76488376      11.98080254      59.50881195       0.40082811       4.14352472      16.10119555       0.00129704      -0.00410353       0.00054589      -0.00620949      -0.01240524       0.00656189      12.70663754      60.81950903
Li       0.31623560       8.06288194      28.51616523      -0.00981931       0.04583866      -0.11375591       6.07504320      20.33953476      29.70218468      -7.48347589      10.50942944     -49.54383149       0.00422413      -0.00926386       0.01188666       0.00091482      -0.00782254      -0.04649559      58.49372660      36.50784298
Li       1.65361698       4.38358752      26.96031541      -0.00881276       0.04060205      -0.04123846      16.63055611      17.85699463      27.83335495     -16.36361153      27.77117311     -34.35553388       0.00145402       0.00048667      -0.01257146      -0.00966459       0.01999040      -0.03305992      30.39401200      37.01544680
Li       2.50649634       8.04291486      25.60380507      -0.02635677      -0.02873074      -0.02603898      17.82999992       9.35514069      39.67876053     -11.14213399     -32.61503798     -98.16504016       0.00046613       0.00326415       0.00501736       0.00611519      -0.00750532      -0.06908101      75.08969170      44.49529853
Ga       1.01311150       8.05476135       6.86589567       0.01683369      -0.01499371      -0.36835450      13.99423504      10.64431190     232.36306763      40.00995978       8.62275182      81.05078207       0.00093484      -0.00302560       0.00047058       0.04423837      -0.00366291       0.03975314      58.46983320     233.02732713
Ga       1.08593230       5.15172263       9.06696386       0.01463289      -0.01448613      -0.38621011       6.26564455       0.94742912     219.93310547      24.14982077      -1.27498982      44.01535117      -0.00203858      -0.01395325       0.00126290       0.02255685      -0.01575980       0.00344342      24.75789707     220.02437775
Ga       3.58692701       6.59282800      11.26742963       0.00222592       0.00031278      -0.04613674       1.63700926       3.45214438     115.11483765      -0.10601778       4.92370838     154.31565395       0.00518232      -0.00923371       0.01147097       0.00393347      -0.00944274       0.15642452     144.95908036     115.17822254
Ga       1.05645963       2.26239291      11.25877460      -0.00292356      -0.00269454      -0.06218207       2.51212192       1.40022588     115.39707184      -3.34434877       1.92747008     157.24556659       0.00217585      -0.00230255      -0.00619032       0.00383468       0.00124528       0.14306784     149.30953466     115.43290509
Ga       1.07593872       8.00823446      13.46052189      -0.00261264      -0.00256082       0.11898410       4.33643579       4.40584183      18.36221504      -6.15714547      -0.70573852     111.88120541      -0.00811064      -0.00262341       0.00519090      -0.00535028       0.00445397       0.07551336      70.73158612      19.37490797
Ga       1.04224550       5.09355776      15.66697605       0.01994426       0.00962052       0.14506224       2.57330537       5.66427374     127.07827759      11.25649976       0.18843499     -42.43090368       0.00148078       0.00511934      -0.00475562       0.01557138      -0.00502418      -0.07452649      71.89861130     127.23047800
Ga       3.48983956       6.59304780      17.85174217       0.02112239       0.01183027       0.09254861      12.88532448      17.30390739     167.58956909      29.25949727       0.60781661    -154.51473205       0.00276131      -0.00875902      -0.00478488       0.02764705       0.04011261      -0.13159156     138.15813536     168.97254353
Ga       1.11877132       2.16902939      17.86039216      -0.03586271       0.01723324       0.10118127      15.41397572      14.15415573     167.28181458     -18.16696716      24.63454473    -153.83005990      -0.00457444       0.00877818       0.00379748      -0.06492992       0.00839590      -0.11986792     137.60836189     168.58569412
Ga       0.93825948       7.90636316      20.24037348      -0.05584085      -0.09305207       0.19076079      35.96598434      24.02806282     209.93426514      35.12910976     -38.79142430    -156.04653084      -0.00159804       0.00313435      -0.00048376      -0.01287314      -0.06851049      -0.13068616     149.03951135     214.34387211
Ga       1.15846621       5.09351236      22.50526159      -0.01737086       0.09045076       0.19920635      12.89002609      17.11687279     196.06182861     -12.46891040      80.97725602    -184.24399421      -0.00811460      -0.00290970       0.00262888       0.01200677       0.05799004      -0.10062909     121.55597983     197.22925935
Cl       3.19628507       5.88103274       2.82746764      -0.01870584       0.02678413       0.15742734       4.31343985      11.45891857      84.71599579     -11.79573605      51.91015031     -57.91927000       0.00036967      -0.00499713      -0.00627266      -0.01821132       0.02948202      -0.02033023      41.61346235      85.59621791
Cl       0.16712419       8.38351159       3.03588666       0.00963316       0.03948740       0.19450414       8.21595764      13.55933762      92.50808716      12.86258993       2.29162702     -26.47433091       0.00039404       0.00360047       0.00902826       0.01822682       0.00955265      -0.02088782      35.33282230      93.85682600
Cl       1.53857434       4.09972936      29.40631615      -0.04077486      -0.01311197       0.12319657       9.12133408       2.49266958      40.75527573     -42.54188771     -17.93032646      31.32187084      -0.00220884       0.00927359       0.00511950      -0.04162313      -0.00982754       0.02147493      46.75296262      41.83783738
Cl       2.29367424       7.79891196       0.18747431      -0.00196453       0.01138845       0.10911059       5.15040827      16.38271332      49.05093002       4.78966301      41.39503425      15.11204996       0.00316033      -0.00156391      -0.00284075       0.00014899       0.03927206       0.00627389      41.94903189      51.97031592
Cl       0.82423623       6.54179391      26.61405328      -0.00610503       0.02313178      -0.07142784       6.33617306       7.10466576      49.05730438     -21.97395650       2.19932111      45.53512107       0.00275388       0.00192883       0.00073893      -0.01969907       0.01902216       0.03673239      45.73670361      49.97241717
Cl       0.18020942       2.48532641      26.81488269      -0.02837844      -0.01090860       0.03566829      11.03959751      17.07674217      19.13883972     -25.98135036     -10.15548159      81.35851234       0.00145427      -0.01111476       0.00316147      -0.01792182      -0.04029388       0.07902975      83.56344786      27.92459529
Cl       2.85036630       5.76365581      23.72316891       0.02678242       0.02955949      -0.00705358      14.07897282      11.19240856      51.59386826      -0.26485550      57.44805480      75.19253224      -0.00653520       0.00299294      -0.00029192       0.02063464       0.04467585       0.05941401      77.72041732      54.63894881
F        0.12141119       0.62644493       8.00992071      -0.05502419       0.03437236       0.10349824      33.82288361      15.90785789      83.62155914      11.15309232       0.25472019     -42.43206910      -0.00405254       0.00341405      -0.00594692       0.00272373       0.01887342      -0.04925568      46.48180987      91.59482819
F        2.64561568       4.95638363       7.99811326      -0.05505913       0.04624891       0.10185046      27.57547760      12.72048283      72.67261505     -16.68053955      13.48488754     -35.71312357       0.00112030       0.00161583      -0.00468233      -0.01039653       0.04244988      -0.02475755      46.93688817      78.76246966
F        0.43469086       6.62361113       8.08058840      -0.01873868      -0.05728509       0.11238939       9.21910286      35.06259155      79.35369110     -16.08969600       1.91130912     -44.96866213      -0.00289489       0.00758383      -0.01311029      -0.03516959      -0.01507539      -0.02633642      41.59359357      87.24325461
F        2.59052708       8.20427913       8.03590711       0.04741585       0.03944002       0.14249803      28.81244850      25.28136635      84.28205109      -4.93455246       3.24385253     -25.48086995      -0.00736134      -0.00702912      -0.00249232       0.01961420      -0.00391301      -0.00893566      27.90889697      92.58924780
F        0.13644022       3.83678478       8.08395337       0.04942837       0.02481090       0.11745730      24.71888161      20.99509430      81.09671021       6.97888913      -8.93636592     -42.21240370      -0.00562708       0.00524283      -0.00531710       0.02503401      -0.01837484      -0.03461685      48.54247755      87.34124741
F        1.77669005       6.72527547       5.74290089      -0.00337230       0.01233004       0.07356580      27.30918503      38.74661636      79.56123352       5.58870078       4.33885915     -48.15510005      -0.01014523      -0.00044605      -0.00467161       0.01760892      -0.01024065      -0.09226450      92.40531051      92.61253557
F        1.92853565       3.62925778       5.77372501       0.00537609       0.02682925       0.11940850      43.82855225      11.67330456      64.90560913     -17.67503209       0.01028998     -11.90424780       0.00262249       0.00083099       0.00128460      -0.01351988       0.01197566      -0.01432472      25.06851909      79.18299141
F        2.65531775       7.82733915      12.45173429       0.00130398      -0.01916870      -0.03259602       8.58452034       7.65961027      18.50482941      18.21176392     -25.53141343     -61.25615381      -0.00158554       0.00187281      -0.00413640       0.01770014      -0.00680112      -0.03405935      36.64092591      21.78972993
F        0.11846448       3.49467946      12.44038065       0.00613329      -0.01254264      -0.03306699       9.52927208       5.78063965      20.42405891      21.03772684     -20.41390497     -63.43969678       0.00225401       0.00249543      -0.00242354       0.02518826      -0.00263997      -0.03558555      40.64567706      23.26725174
F        2.96451014       5.17131443      12.45889259       0.01430817       0.00982846      -0.02370623       8.25350666       8.60999966      18.48569107      10.93874736      28.97363331     -60.14864460      -0.00126469      -0.00128589       0.00268932      -0.00756063       0.02143057      -0.02727346      38.12406852      21.99939182
F        0.45610974       0.83819508      12.45297762       0.01844949       0.01512080      -0.03361690       6.98192024       8.84666061      17.75945663      17.86966445      29.55529859     -67.43913384      -0.00271119       0.00118383       0.00077566       0.00015162       0.02539511      -0.03649186      44.53369294      21.03351882
F        0.09724784       6.76039409      12.44388861      -0.02702500       0.00894644      -0.03623171       7.05197954       7.84631062      19.09367561     -31.39308432      -2.51316262     -64.18476044      -0.00373387       0.00237561      -0.00221690      -0.02428109      -0.01117986      -0.03588679      41.70851843      21.81429472
F        4.18127849       8.05988855      10.23930180      -0.00081621      -0.02055727       0.05812524       5.87450171      20.61118317      50.67642975       0.05107411      16.45860589     -41.47675230       0.00083328       0.00360244      -0.00527503       0.01190666       0.02782109      -0.02732891      34.57652926      55.02209714
F        1.69661748       3.72705559      10.24951780       0.00557758      -0.02350391       0.05991182       5.35335493      20.20606232      51.07752991       5.49979128      15.98150662     -52.58858009       0.00314020       0.00040799       0.00490400       0.01865637       0.01604885      -0.01966266      32.99861840      55.18928723
F        2.01003198       6.38473578      10.24663950       0.02434202       0.01916759       0.05716084      19.06579781       7.37893724      50.07471466      -9.86146172      -6.97760525     -46.09417076       0.00012964       0.00809856       0.00145132      -0.01565765       0.01137526      -0.02158055      28.11480614      54.08724812
F        0.13220754       6.34583248      16.83979652      -0.02190697      -0.02569106      -0.01070797       9.71600533      16.83469391      53.81857681     -35.51392995      -6.06457827      51.89501614      -0.00433141       0.00517369       0.00296305      -0.03014725       0.01745655       0.06721828      70.32823634      57.22103537
F        0.43939352       3.64494989      16.87607234       0.02036384       0.01995064      -0.04306091       9.58087826      26.46495628      63.28338242       9.26897600     -27.83978671      45.89928150      -0.00060369      -0.00491494       0.00303792      -0.00283226      -0.01773070       0.04218285      41.24967604      69.26018791
F        2.93931642       8.08202919      16.84993644       0.05207486       0.01815308      -0.02921227       9.05761147      23.73022842      57.25770569      37.23525208     -18.32981631      52.28104068      -0.00286328       0.00494553      -0.00407039       0.02931362      -0.02769499       0.06021933      78.95520589      62.63871748
F        2.57325513       5.30808411      16.82540858      -0.02180920       0.01187724      -0.03711311      23.02475166      12.67052937      61.51033401       7.12005709      27.14220032      36.73458047       0.00232347       0.00379115      -0.00006701       0.03306904       0.01495566       0.05499155      64.04202829      66.88948119
F        0.10373442       0.95298281      16.84950897      -0.04979720       0.03620005      -0.03353781      22.83121872      10.63701820      56.24794006      -6.60216260      43.36752403      54.48815183      -0.00670523      -0.00709888      -0.01195538       0.00205816       0.04077252       0.05563940      83.29178966      61.62987478
F        2.02387813       3.84441542      14.65216573       0.04344955      -0.00149535      -0.05874199      10.62682819       7.67907572      26.54759216      18.92689277       5.07409488     -22.66349232       0.00490481      -0.00012229      -0.00536060       0.01405186      -0.01359557       0.00063577      17.35379644      29.60865297
F        4.55293964       8.22625996      14.64400714       0.02582917       0.02320828      -0.04729474       8.56173706      10.25901222      26.02139091      11.16438823      18.12560078     -20.11902350      -0.00416668       0.00658723       0.00431816       0.00423910       0.00014178       0.00393352      10.59947692      29.25172573
F        1.66237540       6.57543892      14.64324427      -0.02245349       0.02918328      -0.05541167       9.60733795       7.78646278      25.73617363     -14.13587985      11.61783262     -23.48283627      -0.00108623       0.00049062      -0.00147114       0.00384467       0.01025204       0.00257675      11.66123959      28.55311854
F        2.45455182       4.86352621      21.06088186       0.06169631      -0.05451810      -0.09608448      39.15877151      36.44179535      78.25003052     -11.85271827      -8.52613506      55.49850256      -0.00468522       0.00394674       0.00552138      -0.00449872       0.02382778       0.01866752      23.83509032      94.78650279
F        0.19338777       0.59735052      21.18515406      -0.00189454      -0.03795826      -0.03320888      13.77067947      16.62300682      57.61141205      35.34061749     -25.56233382      54.19876852      -0.00516932       0.00132260      -0.00314140       0.00776219      -0.00569314       0.05810042      62.98416528      61.52260371
F        0.41158970       6.55819439      21.42789865       0.00336452       0.02291705      -0.07200465      13.75768852      46.22527695      73.04458618       6.85298148     -53.26225430      50.56306152       0.00167014      -0.00452427       0.00356262      -0.02730595      -0.03494997      -0.00774997      43.51220179      87.53034784
F        0.14129028       3.86314849      21.17463375      -0.00327179      -0.02360069      -0.04076219      25.44461823      22.18483925      63.22759247      52.55320038      12.91473110      92.45050234       0.00243049       0.00324154       0.00064936       0.01863341      -0.00324627       0.04853040      50.96293051      71.67512915
F        2.58669566       8.20544560      21.18656109      -0.03946971       0.02895178      -0.03435728      19.57195663      13.73934555      59.21799469     -41.36151291     -10.20207771      53.55970261      -0.00138499       0.00133465       0.00136410      -0.01493005       0.00232106       0.06140998      61.56256460      63.86393346
F        1.95106078       6.82595772      19.01842713       0.04577431       0.05247244      -0.01687212      26.90375900      11.23252296      47.82081604     -21.37373920      32.28532706      56.22411674      -0.00253539      -0.00054566       0.00374960      -0.01550009       0.03428936       0.04946449      58.91870019      56.00725192
F        4.38219624       8.03158107      19.13289955      -0.05097840      -0.02852374      -0.05478469      16.88835144      18.06931877      69.69696808     -18.04316663      16.13817420      30.80746884      -0.00285902       0.00034761      -0.00099745      -0.01266972      -0.01069778       0.01183084      19.56567144      73.95528416
Li       6.04860885      13.81306548       5.09175600      -0.02823557      -0.01110255      -0.10378437      15.46152878       7.13213110     102.03359985      -1.32896730     -12.87009846     123.90353354      -0.00358855      -0.00047787       0.00784179      -0.00273469      -0.01158568       0.09740463      90.25305994     103.44458258
Li       1.00712922      13.85054890       5.16348969      -0.01870844       0.02041979      -0.11813435      14.77656841       7.84676313      95.99433899     -22.25780557       7.44073910     113.96479801       0.00454408      -0.00815663      -0.00462945       0.00510256       0.00511142       0.06760625      73.44623479      97.44142745
Li       3.51505318      15.28079872       5.06460798      -0.04696791       0.01572677      -0.16174205      11.23479462       6.29266357     109.06920624     -20.70354874       2.92718323      72.45152563      -0.00162651       0.00497491      -0.00167025      -0.01783508       0.00336714       0.05861906      62.45080917     109.82672705
Li       8.02948217      16.56005081       4.83540646      -0.00807910      -0.04571540      -0.09087560      18.28359985       9.85830212      93.72039032     -39.49364255     -24.60183815     137.96990166       0.00067237      -0.00039030       0.00138543      -0.05845921      -0.03364328       0.10086295     120.40797904      95.99472749
Li       5.95977842      10.78131786       5.11229693      -0.00058699      -0.01335728      -0.08912331       9.10644627      10.96121025      96.40533447      15.25146138       0.75771183     127.90866135       0.00256221      -0.00374440      -0.00142838       0.02364052      -0.01124780       0.08875708      92.91939173      97.45288096
Li       2.38897797      10.85104873       4.83793959      -0.03398657       0.02428880      -0.08701822      14.42424965       8.67687607      94.14679718     -10.85626985      30.88880930     130.73941786       0.00071692       0.00169328       0.00056729       0.00593603       0.03894202       0.12545182     130.42566302      95.63977507
Li       2.55834543      13.58126812       1.93549910      -0.01738591      -0.00745595      -0.11198323       5.85297918       4.20193386      57.64036560     -11.66693766      -6.83814974      23.17671481       0.00398996       0.00080305      -0.00859873      -0.00092545      -0.00114780      -0.00508682       6.34827402      58.08894353
Li       5.83111567      15.13401025       1.88863459       0.06392211      -0.03331172      -0.08896381      22.58840370      11.31470871      56.88794327      24.64943661     -19.01739225      18.89926545       0.00281223      -0.00076237       0.00087389       0.01211120      -0.01920176       0.01393473      24.43496446      62.24545529
Li       1.61888963       9.87663192       1.88310239       0.01484669       0.00141627      -0.12830433       7.09405899       8.30228996      55.43272781      -6.43827556      -2.76915986      -8.29219930       0.00651996       0.00569534       0.00278701       0.00379613      -0.01301470      -0.00884409      22.19836332      56.49815045
Li       5.23279273      11.18301330       1.90073186      -0.00407831      -0.03184082      -0.12328434       3.76490498      11.98080063      59.50873947       0.40053009       4.14456780      16.10068891       0.00129704      -0.00410353       0.00054589      -0.00620973      -0.01240485       0.00656112      12.70615998      60.81943905
Li       0.92198948      11.63904076      28.75777869      -0.03249461       0.02903967      -0.08583694      13.03346157       7.31744766      22.76055717      -8.35021623      33.74607427     -36.87991355      -0.00511606      -0.00382710      -0.00221145       0.00207479       0.01717016      -0.04114109      44.81194173      27.22974703
Li       4.18289692      13.07770398      28.53706554       0.03575694       0.00556594      -0.13901800      30.52365303       6.69914293      36.18108749      11.04366738      18.96311004     -53.53817374      -0.00583896      -0.00650874      -0.00111258      -0.03773709       0.02428235      -0.05264144      67.97650575      47.80839887
Li       1.78005370      15.87897932      28.69196205      -0.03370994      -0.03142085      -0.10835277      20.29918861      20.42974663      33.88079071     -11.85633139     -26.12361844     -33.92979458       0.00453562      -0.00078702      -0.00314723       0.01499426       0.00567221      -0.03067717      30.14966665      44.46728668
Li       5.32823560      16.74392059      28.51616523      -0.00981908       0.04583605      -0.11375631       6.07501888      20.33945656      29.70208740      -7.48322257      10.50690369     -49.54427107       0.00422413      -0.00926386       0.01188666       0.00091502      -0.00782490      -0.04649647      58.49453550      36.50771622
Li       3.80155860       9.28508598      28.61974109      -0.01233007       0.01405269      -0.12149120       7.80331993       7.75648975      38.84293365       1.27549057      -0.92694597     -42.05854501      -0.00286103      -0.00672673       0.01102979       0.00850259       0.00064704      -0.02269391      36.34270608      40.37113362
Li       3.08455761      11.28393593      25.54157128      -0.03819744       0.04261740      -0.01815834       5.77146244      15.61676884      44.01935959     -29.21474050      33.04145528     -99.14159055       0.00196435      -0.00135278       0.00757245      -0.02460588       0.00558688      -0.05996207      72.90437158      47.06269506
Li       6.66561698      13.06462617      26.96031541      -0.00881182       0.04060332      -0.04123870      16.63061905      17.85692215      27.83319855     -16.36235238      27.77288674     -34.35557485       0.00145402       0.00048667      -0.01257146      -0.00966346       0.01999139      -0.03306002      30.39430135      37.01532251
Li       0.20520707      14.01431504      26.96022897       0.02535881      -0.01104821      -0.01881880       8.55770683      10.80060482      26.05902672      20.43751130      -1.72652356     -29.92390367       0.01071882      -0.00932108      -0.00611036       0.03162701      -0.02165435      -0.00714006      24.29654790      29.47813231
Li       3.65778527      15.25837290      25.66763299       0.00570325       0.00286693       0.00852510       3.24874496       3.35737443      48.10565186       0.14100541      -2.98241365    -117.83151077       0.00884328      -0.00293860       0.00597508      -0.00004239       0.00158186      -0.03967753      46.72847622      48.33197749
Li       7.51849634      16.72395351      25.60380507      -0.02635725      -0.02873135      -0.02603902      17.83001328       9.35499477      39.67878723     -11.14224575     -32.61563031     -98.16472724       0.00046613       0.00326415       0.00501736       0.00611512      -0.00750620      -0.06908129      75.09008895      44.49529702
Ga       1.02654721      16.67050861       6.86597411       0.00042084       0.02986944      -0.40211654      18.19168472       9.27204132     232.26240540     -37.66949248      17.44935375      60.43837878       0.00253020      -0.01320688       0.00392975      -0.01198530       0.02184576       0.00455973      37.94448822     233.15817186
Ga       6.02511150      16.73580000       6.86589567       0.01683222      -0.01500580      -0.36835080      13.99374485      10.64297295     232.36242676      40.00703915       8.60872982      81.05218278       0.00093484      -0.00302560       0.00047058       0.04423673      -0.00367509       0.03975499      58.46999559     233.02659749
Ga       3.57863255      12.43770587       6.93273864      -0.00632434      -0.00588515      -0.38458639      13.29004955      18.19657898     243.58903503      10.67609345      -8.23773309      81.97974550      -0.00499250       0.00030735       0.00733400      -0.00016699      -0.02201508       0.03176671      33.44448752     244.62902299
Ga       3.55868575       9.47943126       9.04288715       0.00787051      -0.00370232      -0.38322473       4.97826958       1.89179349     203.16317749       0.47688880     -13.95407463      26.79806791       0.00564563       0.00798911      -0.00255066       0.00755542      -0.00720033      -0.03018445      31.59102301     203.23296666
Ga       6.09793230      13.83276128       9.06696386       0.01463112      -0.01447942      -0.38621306       6.26560163       0.94695717     219.93344116      24.14774579      -1.26988245      44.01147687      -0.00203858      -0.01395325       0.00126290       0.02255366      -0.01575519       0.00344351      24.75439993     220.02471005
Ga       1.03672248      13.81616608       9.07751200      -0.02585363      -0.00352840      -0.38189387       5.17351437       5.77416420     218.85350037     -30.33854833      -7.89481725      44.74989697      -0.00836049       0.01242575       0.00204264      -0.03634310      -0.00376078       0.01078510      33.48821916     218.99077800
Ga       3.56802686      15.26767116      11.25076758       0.00651051      -0.00041969      -0.05248260       1.81165087       1.54320490     116.33453369       7.24197773      -0.54159046     160.09600699      -0.00240636       0.00240958       0.00526501       0.00234182       0.00204173       0.15820816     153.01727896     116.35887284
Ga       8.59892701      15.27386665      11.26742963       0.00223192       0.00029820      -0.04614109       1.63664019       3.45220494     115.11594391      -0.10071577       4.90804819     154.31288234       0.00518232      -0.00923371       0.01147097       0.00393659      -0.00945755       0.15642390     144.95845565     115.17932476
Ga       1.04719024      10.90759103      11.26098506      -0.00099978      -0.00932009      -0.05261582       1.98267424       2.85979533     115.77278900      -4.20466307      -5.94261288     153.78185918       0.00130578      -0.00232419       0.00610465      -0.00648842      -0.00342204       0.15091664     145.02574694     115.82507543
Ga       6.06845963      10.94343156      11.25877460      -0.00292453      -0.00269507      -0.06218266       2.51137257       1.39972150     115.39635468      -3.34640513       1.92519393     157.24446391       0.00217585      -0.00230255      -0.00619032       0.00383123       0.00124343       0.14306650     149.30811289     115.43216573
Ga       1.08874212      16.74022151      13.45817230      -0.00074201       0.01116336       0.11656514       4.81190109       3.39081097      18.40549660       3.49626707      -2.30917816     112.04176553       0.00442560       0.00497155       0.00033257      -0.00420279       0.00504083       0.07190788      72.09354281      19.32393066