45
Properties=species:S:1:pos:R:3:force:R:3:mbi_charges:R:1:bec:R:9:pred_charges:R:1:pred_bec:R:9:hirsh_charges:R:1:mul_charges:R:1 energy=-202.7778778076172 dipole="_JSON [[0.9342932105064392, 0.3896370530128479, -0.6645343899726868]]" quadrupole="_JSON [[[-23.780536651611328, -2.0753955841064453, -1.3051551580429077], [-2.0753955841064453, -35.85139083862305, -0.6757714152336121], [-1.3051551580429077, -0.6757714152336121, -27.902767181396484]]]" mbi_dipole="0.9988400870367681 0.31045125759842496 -0.5938796712342043" mbi_quadrupole="_JSON [[4.543669634344852, -3.2377176370156473, -1.2628985091911926], [-3.2377176370156473, -7.002040360566273, -0.5573590956134498], [-1.2628985091911926, -0.5573590956134498, 2.4583707262214207]]" pred_dipole="1.1227267029881052 0.44847915342029065 -0.8870319474709918" pred_quadrupole="_JSON [[3.722079372835066, -2.3781224274613137, -1.7966163492419274], [-2.3781224274613137, -6.248444526275133, -0.6007660712262747], [-1.7966163492419274, -0.6007660712262747, 2.526365153440067]]" hirsh_dipole="1.0667581105847712 0.5616195380507082 -0.8550798083407827" hirsh_quadrupole="_JSON [[3.5709905846675074, -2.289732907267521, -2.413771123847578], [-2.289732907267521, -6.161180556855187, -0.3933248208643929], [-2.413771123847578, -0.3933248208643929, 2.59018997218768]]" mul_dipole="1.0846430221811794 0.3736286708165631 -0.9163256934893479" mul_quadrupole="_JSON [[4.203314682538396, -3.121258980894257, -2.073360175672125], [-3.121258980894257, -7.446667528958909, -1.0636113525595654], [-2.073360175672125, -1.0636113525595654, 3.243352846420514]]" pbc="F F F"
O       -2.02966976      -0.63859695       3.42645478      -0.61704832      -0.31854364      -0.07776701      -0.60537541      -1.08519601      -0.18387181       0.21290260      -0.30279724      -0.51812552      -0.08110511      -0.04900133      -0.15733272      -0.71476433      -0.30904803      -1.21371913      -0.21223798       0.36963320      -0.35416153      -0.49028224      -0.06659794      -0.10467243      -0.17404285      -0.62530875      -0.28454690      -0.47742331
O       -0.82109284      -2.01025486      -1.41699779      -1.53458643       0.89854950       0.39532167      -0.80970651      -0.89661161       0.40298378       0.06933373       0.36797056      -1.27974220      -0.09417132      -0.14749721       0.29691186      -0.79030327      -0.42423433      -0.87358606       0.41616002       0.06477863       0.46081209      -1.22455549       0.02216665      -0.10826668       0.18654296      -0.70928490      -0.35060640      -0.64784688
O       -0.45917666       3.96989155      -0.50372016       1.00106168       1.68515778      -0.02650266      -0.60424644      -0.74270812      -0.21252410       0.14999676      -0.25498669      -1.31726258       0.08063658       0.15837172      -0.12609673      -0.38326647      -0.31958964      -0.78089988      -0.19645491       0.15596102      -0.41623628      -1.12724209       0.05505712       0.12818067      -0.09530236      -0.41367948      -0.30247010      -0.48873063
O        1.18380952       1.27009583       0.81614876       0.10828158      -1.53850436       0.59137750      -0.64413327      -0.65049220      -0.21282241      -0.24807353      -0.32310297      -0.73314892      -0.07741530      -0.07545015       0.05292971      -0.84506139      -0.36067596      -0.76935208      -0.26054764      -0.36161494      -0.46739620      -0.80717552      -0.23880082      -0.17247744       0.03969716      -0.81339353      -0.31409390      -0.56609781
O        0.75718564      -3.36056328      -1.94092536       1.04103839      -1.58656216       0.93183857      -0.82773489      -0.88846360       0.24981282       0.50027827       0.12480162      -0.92802007      -0.10843434       0.59973998      -0.13266615      -1.30696526      -0.39879748      -0.79420221       0.26809102       0.26806739       0.18922378      -0.79464626      -0.01708740       0.49743181      -0.18616676      -1.05876279      -0.35784400      -0.63023178
C       -0.95791042      -0.14366013       3.65364289       1.17281330       0.95461726       0.40532392       0.79053915       1.53355400       0.10732883      -0.72844421       0.19399373       0.54441147       0.45232129      -0.34127594       0.46474869       1.31259905       0.18266630       1.57127810       0.18626595      -0.80210894       0.29089072       0.54647261       0.40481180      -0.20360817       0.41783598       1.13467526       0.19715040       0.42276475
C        0.00436366      -2.87677264      -1.05509567      -0.29856965       1.57430267      -2.03887820       0.96062797       0.97992155      -0.83072498      -0.46493463      -0.70419254       0.88894485       0.20576931      -0.25449216      -0.12805289       1.36246607       0.18118443       1.00865781      -0.80564266      -0.18442015      -0.70251495       0.87286896       0.03027386      -0.16206942      -0.10461566       1.18314600       0.15594930       0.49583654
C       -0.95243651       2.87921619      -0.52301490       2.10045242      -0.13545765      -0.56597763       0.68737972       1.36144895       0.32473760      -0.42317118       0.06879685       1.42547719       0.03992077      -0.63510076       0.03708392       0.41644182       0.17466062       1.09138775       0.25346604      -0.40714413       0.26392266       1.39469171       0.05159081      -0.51488566       0.12704414       0.45944348       0.16987890       0.40636226
C        0.40932971       0.33959293       0.49670446       0.24192861       2.18795705       2.37662792       0.67682719       0.63012562       0.29475183       0.54075111       0.36602284       0.65422693      -0.17878489       0.38560182      -0.25848064       1.28554908       0.19829395       0.78132087       0.32498205       0.61619210       0.41789138       0.66786963       0.01487096       0.45954081      -0.10766479       1.07941103       0.16643830       0.38650583
C        0.81923836      -0.26992184      -3.19935346      -0.38604182      -0.77454305       0.48346224      -0.09517147       0.07286530      -0.10878531      -0.02530583       0.18858433       0.06704644       0.04644746       0.01704861      -0.10257091      -0.09226138       0.08087581       0.08640740      -0.08939753       0.09445406      -0.02529320       0.22363812      -0.02585340       0.00826707       0.03978889       0.00999724       0.00138050      -0.03125601
C        1.57447362       0.68559963      -2.58601379       0.77504969      -0.51340657      -1.40493751       0.25004673       0.11533857       0.06610399       0.01217014      -0.25561828       0.29786355       0.19236943      -0.10130976       0.12061579       0.08709762       0.14457966       0.42600626      -0.06047692       0.00237142      -0.13714181       0.34870496       0.12117124       0.07471202       0.07541864       0.14971173       0.05533200       0.08273441
C        2.79913616      -1.13926530      -2.91222835      -1.38298333      -0.84845102      -0.66064191       0.22974789       0.23036627       0.30035067       0.06322609       0.39400444       0.31544581       0.01468370       0.16816906       0.11956425       0.14470231       0.16734026       0.40027148       0.21312487       0.15344711       0.23397377       0.51330632       0.21825714       0.13144514       0.17282212       0.25065193       0.11916730       0.12066153
N        1.54819942      -1.45402575      -3.37602568       3.51319218       3.53321147       1.09098327      -0.34395209      -0.22255573      -0.20271548       0.06000333      -0.29782628      -0.56510760       0.05836616      -0.13006939      -0.14146437      -0.35512679      -0.22038984      -0.25138864      -0.15111642      -0.18730055      -0.13158280      -0.42601502      -0.07683827      -0.06040993      -0.14196727      -0.35554993      -0.00880110      -0.10655960
N       -2.10709453       2.63754249       0.10061175      -1.93736911      -2.39383125      -0.63797224      -0.61248589      -0.99077892      -0.21156910       0.21195974       0.04473091      -0.52468636       0.07155620       0.38309071       0.18989565      -0.54740660      -0.31693447      -0.79655242      -0.16325051       0.23271194       0.05267908      -0.43107185       0.04504795       0.40104133       0.00457272      -0.45558515      -0.10474930      -0.28340527
N       -0.24406284       0.48399884      -0.61885458      -2.48574924      -1.64302170      -1.89331234      -0.59291500      -0.60694329       0.00653818      -0.17216744       0.09739864      -0.73775348       0.20469289      -0.13493929       0.06339045      -1.14390517      -0.27453303      -0.54716706      -0.08529402      -0.18013504       0.06397588      -0.62418580       0.25111577      -0.28467488      -0.01513853      -0.81637657      -0.09987670      -0.25577372
N        0.16145664      -0.34222046       2.84258008      -1.28487968       0.59566885       0.73372132      -0.63856578      -0.82876735       0.13504352       0.51732356       0.29811654      -0.50217998      -0.27103096       0.36935688      -0.18984049      -1.07505820      -0.32007861      -0.80746460       0.04856889       0.43522769       0.20334114      -0.51310843      -0.32320827       0.34802303      -0.12766521      -1.03217649      -0.11564620      -0.29895591
N        2.87930632       0.14337218      -2.51550031      -0.83074349      -0.97750336       0.94628489      -0.43346214      -0.35113986      -0.27822861      -0.05443671      -0.33790109      -0.40887526      -0.03208841      -0.00249771      -0.02785135      -0.14376959      -0.18882225      -0.29701695      -0.08387687       0.05886496      -0.21634886      -0.49659020      -0.01210737       0.00725278      -0.02262878      -0.14501299      -0.02903920      -0.13875766
C       -0.70846009       0.80519646       4.87522221       0.05737806       0.08922213      -1.98065603      -0.66754526       0.03933918       0.00973321       0.01466879      -0.02172736      -0.09160609      -0.17512894      -0.02126326      -0.17768807      -0.26211453      -0.14519069       0.11104938       0.00193398      -0.06604976      -0.00189697       0.00527464      -0.18399522      -0.00160059      -0.11551169      -0.08309539      -0.11942630      -0.32691997
C       -2.97699928       1.44439960      -0.32480285      -0.47940820       3.15851116       2.75367975      -0.16895066       0.29452597       0.12218636       0.04631711       0.17873649       0.33802143      -0.00975187       0.05662990      -0.01226542       0.11165074      -0.03221719       0.31569213       0.17205194      -0.00648019       0.16983351       0.34652525       0.01402411       0.00810559       0.08988687       0.16815081      -0.06078010      -0.19919611
C        0.09571201      -3.13365054       0.42042410       2.93299866      -1.28925824      -1.91274095      -0.52234834       0.06809645      -0.01063359       0.00569824       0.00629353       0.13927687      -0.04406464       0.02622684       0.04800947      -0.25569369      -0.08747765       0.08569620       0.11209621      -0.04114389       0.04350094       0.09048665       0.00442881       0.00375845       0.03787631      -0.15816766      -0.08665550      -0.21581475
C        1.17254806       2.01451349      -2.06166553      -1.05280030      -0.01369607       1.85862505      -0.38597164      -0.01238675      -0.02916636       0.05180717       0.05619817      -0.00425766      -0.00579392       0.00757051       0.08278781       0.05067419      -0.07472947       0.05011552       0.00515376       0.11969682       0.19949245       0.05562379      -0.16694716       0.01374285      -0.02220312       0.00046455      -0.06686860      -0.18620502
C        0.76030165      -2.01027131       1.22191656       1.68280768      -2.90338039       0.23715530      -0.21283953       0.16813572       0.01688259      -0.01097366       0.01541282       0.08035898      -0.00531534      -0.01981360       0.12183811      -0.04916402      -0.09620990       0.10959558       0.06288177       0.01993147       0.02283226       0.21176629       0.05742786      -0.08162490       0.17523974      -0.07178710      -0.06626150      -0.14694462
C       -0.19822633       1.72990346      -1.33840919      -2.29980016       0.26958266      -0.67182869       0.03545133       0.25446241      -0.01141262      -0.09984719       0.00388419       0.21631636      -0.32969938       0.07747256      -0.35288434       0.40735262       0.07268900       0.31461406       0.16756296      -0.00930464       0.02267716       0.33389458      -0.12775116       0.05840418      -0.31909153       0.38032290       0.03252680       0.01068764
C       -0.02652347      -0.79400575       1.48327017      -1.09800446       0.91905689      -1.14111364      -0.00324576       0.02496785      -0.09735960       0.12616212      -0.16121470       0.17899827       0.28492286      -0.11610355       0.15034119       0.58683322       0.08694007       0.26924121      -0.05141144       0.00087586      -0.13373257       0.16921066       0.17611207       0.01982275       0.10794333       0.53551340       0.02312320       0.00807455
H       -0.24821401      -0.27059403      -3.31516480       0.10506763      -0.07022842      -0.24752358       0.19173501       0.08825336       0.04037520      -0.00924770       0.01038095       0.11565544      -0.03498522       0.03627663      -0.00344314       0.21023448       0.07419640      -0.08196798       0.01171003      -0.07797629       0.01294873       0.02128619      -0.00809182      -0.03403186      -0.03758179       0.13607757       0.06781410       0.14585930
H        3.58625650      -1.86300254      -2.78644729      -0.03193693       0.07338101      -0.09042804       0.15599765       0.13660831      -0.02276608      -0.03045939      -0.00632857       0.11323730      -0.01582791      -0.04700794       0.00683441       0.14930337       0.09673792      -0.02611908       0.07562493       0.00336732       0.08270806      -0.02401299      -0.05337168      -0.04537823      -0.00061183       0.10410158       0.09362340       0.14858040
H        1.26924467      -2.43701410      -3.32017255      -1.10194659      -0.42573977       0.38821641       0.46385577       0.32577220       0.24724118      -0.20170289       0.36324633       0.75222780      -0.28886230      -0.18196580      -0.10775901       0.61056046       0.25795367       0.23684791       0.13025111      -0.08399328       0.09810998       0.47244874      -0.11846872      -0.16934423      -0.08428693       0.52993429       0.13355030       0.29445362
H       -2.49709296       3.36944699       0.71331561       0.45015001      -0.71410102      -0.97415847       0.38468236       0.13753481      -0.07857322       0.02086278      -0.08657254       0.18273501      -0.03101589       0.01150097      -0.00696196       0.27289877       0.25337312       0.23306718      -0.16471440       0.00773293       0.01848351       0.07159320      -0.07453851      -0.02564951       0.02226038       0.21887085       0.14624050       0.23195393
H       -0.90847117      -0.29312068      -0.92075342       1.42818379       0.86353320       0.40296248       0.41190088       0.25505803       0.06061285       0.00399436      -0.05374051       0.70816412       0.19096165      -0.05860321       0.19965495       0.17773512       0.25803652       0.20824432       0.01753316      -0.03778858      -0.12203406       0.64228636       0.06283036      -0.00235161       0.21453756       0.16743508       0.09874290       0.24925268
H        0.89588183       0.32057446       3.00561762       0.27560088       0.08956574      -0.32564807       0.37367767       0.22279865      -0.01918881      -0.01105225      -0.05099125       0.20504674      -0.10125893       0.06919097      -0.05353240       0.22481358       0.26684815       0.27519485       0.02333920       0.05911630      -0.03065182       0.26198494       0.00252698       0.05174280      -0.04631387       0.29959625       0.11265470       0.22220475
H        3.57186651       0.37052041      -1.78849173      -0.51802677       0.30726665      -0.87572235       0.40672758       0.37626608       0.08691980       0.00350476       0.08726404       0.25634399       0.00449395      -0.04015244      -0.05052714       0.27664118       0.28406978       0.30549419       0.03189744      -0.06582666       0.07116666       0.22476353      -0.03009951      -0.02525013      -0.06702987       0.24653977       0.18435460       0.26609650
H       -0.88991839       0.28143370       5.78731728      -0.09967649      -0.21227123       0.55192041       0.20723926       0.08149848      -0.02753960       0.01599072      -0.01810098       0.03884466       0.04479230       0.01203548       0.01198900      -0.02610637       0.07604119       0.02899874      -0.01826847       0.02990279      -0.01801882       0.00393624       0.00338563      -0.00609766       0.02161706      -0.11043876       0.05364950       0.12170468
H        0.30766004       1.19159842       4.80537701      -0.00258495      -0.09601727       0.39491501       0.16579349      -0.08659066      -0.06010197      -0.01498951      -0.03062209       0.04060102      -0.01813785       0.04829479       0.00761161       0.05055383       0.06889206      -0.09813103      -0.05821145       0.03537345      -0.08066387       0.01256593       0.03127578      -0.02073786      -0.02322475       0.03611775       0.04208650       0.09564066
H       -1.37822366       1.67648458       4.77158070       0.12312368      -0.58940995       0.13281564       0.19220959       0.01718086       0.06308074      -0.01918118       0.05479430      -0.00351739      -0.02588280      -0.03286374       0.01270951       0.05848701       0.06844630      -0.01948717       0.06404394       0.01913619       0.05182403      -0.07261824      -0.00067839      -0.00986799      -0.03413227       0.01003587       0.05305210       0.11619190
H       -2.72082782       0.63237065       0.28247768       0.05461889      -1.26897776       0.76941317       0.12921593       0.05844133       0.00134244      -0.03638163      -0.05583887      -0.03990111       0.02874142      -0.04507612       0.03800214       0.04450910       0.07519045       0.03271803      -0.02355503      -0.03183515      -0.00120741      -0.07256471       0.02499787      -0.01887208       0.02540285       0.02490731       0.04285330       0.12355081
H       -4.01006031       1.76196551      -0.14571849       0.22813725      -0.26245949       0.21464817       0.11391077      -0.12015605       0.00665879       0.02513004       0.07180042       0.01549796      -0.01378851       0.03813270      -0.02758627       0.09141937       0.06680310      -0.15502679       0.03835936       0.00859113      -0.02055922       0.00095049      -0.01159083       0.05708788      -0.03613222       0.05230810       0.05427350       0.11069486
H       -2.96201992       1.18147373      -1.32196355       0.68142927      -0.16188645      -2.16414022       0.12137941       0.06854656      -0.05395657       0.04656784      -0.05968833       0.01945717      -0.01279351       0.03035564      -0.03642779      -0.04547051       0.07558111       0.06046803      -0.06013517      -0.02274313      -0.07106839       0.02473574      -0.04670071      -0.05511157       0.01078662      -0.04081640       0.05135590       0.11530290
H        0.75240058      -4.03555441       0.43779659      -0.36304215       0.59742606       0.61069059       0.14484750      -0.00737384       0.10657334      -0.03937690       0.06869841      -0.11780598       0.00098944      -0.00083073      -0.03640011       0.04627295       0.06525747      -0.01973249       0.02000320      -0.02550436       0.07058415      -0.12695593       0.00058257      -0.03107606       0.01930544       0.01645782       0.02960150       0.08932698
H       -0.84113955      -3.42721415       0.76284945      -1.66730845      -0.12007912       0.86159205       0.18641944      -0.04672406      -0.04949035       0.03499074      -0.00357225       0.06819433      -0.00566283       0.01749408       0.00304177       0.01000044       0.07469533      -0.06320092      -0.05216372       0.04044760      -0.04190022       0.02198884      -0.00899407       0.03349320      -0.03288365      -0.01918684       0.04443020       0.11321276
H        1.86954021       2.34670448      -1.27624989      -0.17625660       0.09696642      -0.61639577       0.19651893       0.02009857       0.03166326      -0.02945073       0.02870578       0.07091443      -0.01409326      -0.06516145      -0.04896761       0.10447589       0.06520486      -0.04156493      -0.01984303      -0.04326769      -0.01907297      -0.00372574      -0.06946804      -0.09109745      -0.07750043       0.02359107       0.04475470       0.13196824
H        0.97832793       2.76536202      -2.81962466       0.38555562       0.05767091      -0.00820013       0.18487787       0.07784029       0.03743344      -0.00163740       0.01598422      -0.01394500       0.01115266       0.01630712       0.03414653      -0.00894533       0.07098005       0.03616734       0.01654951      -0.00280103       0.02485478      -0.09232301       0.07307985       0.00522161       0.03803426      -0.03917441       0.05630840       0.12359530
H        1.82541847      -1.81811833       0.80981600      -1.68060958      -0.26651067       0.87868506       0.10581930      -0.13023303      -0.01765336       0.05224692      -0.04848869      -0.01653576      -0.01547533       0.08910339      -0.02119283       0.03915586       0.05780216      -0.10979816      -0.05771588       0.03991375      -0.00687847      -0.03570342      -0.00942435       0.02391085      -0.01540506       0.01339530       0.02529320       0.06143076
H        0.79581970      -2.55722380       2.19100904       0.78154123       0.83566558      -0.34265330       0.14971446       0.04753338       0.01747708      -0.00153861       0.00670835       0.00084028       0.07387119      -0.02821768       0.07860269      -0.09778203       0.06265990       0.01424522       0.02716155      -0.05740551      -0.00199677      -0.04507481       0.06906889      -0.01529596       0.05570179      -0.11415735       0.03452300       0.10463837
H       -0.95191729       1.63209867      -2.15947056       0.68179816      -0.34686714       0.30121773       0.09520438      -0.04763224      -0.00591963      -0.07950748      -0.04093455       0.01947721      -0.01241927      -0.07171817       0.03134323      -0.06041026       0.06705935      -0.05107269      -0.03856333      -0.02173153      -0.01721189       0.00069173      -0.00450302      -0.10101334       0.00834967      -0.06631111       0.03491090       0.08699953
H       -1.12794137      -1.05830765       1.32252383       1.50663793       0.68782091       0.35106540       0.15642607       0.02549303      -0.01012894      -0.08423861       0.00225329       0.04804158      -0.00340031      -0.01709930       0.02862996       0.07018756       0.05258913      -0.09660965      -0.03593579      -0.11921951      -0.04815762       0.02700472      -0.05898746       0.01428113      -0.00356286       0.05612822       0.04264570       0.11383261
45
Properties=species:S:1:pos:R:3:force:R:3:mbi_charges:R:1:bec:R:9:pred_charges:R:1:pred_bec:R:9:hirsh_charges:R:1:mul_charges:R:1 energy=-202.7807159423828 dipole="_JSON [[-0.5667235851287842, -0.8141227960586548, 1.1476283073425293]]" quadrupole="_JSON [[[-32.73128128051758, -2.745558500289917, -1.638418436050415], [-2.745558500289917, -29.956871032714844, -2.096660614013672], [-1.638418436050415, -2.096660614013672, -28.986982345581055]]]" mbi_dipole="-0.547837661831434 -0.804203980916069 1.1930733345028834" mbi_quadrupole="_JSON [[-1.6163656909243498, -2.2777802577465684, -1.9671587269521387], [-2.2777802577465684, 1.3790223642365804, -2.4273049372347], [-1.9671587269521387, -2.4273049372347, 0.23734332668776947]]" pred_dipole="-0.4768454966013828 -0.8555772801941361 1.1654696540665916" pred_quadrupole="_JSON [[-1.4073016045889446, -1.3033733411543953, -1.5376066577760164], [-1.3033733411543953, 2.1331123704526584, -1.8832384547577816], [-1.5376066577760164, -1.8832384547577816, -0.7258107658637133]]" hirsh_dipole="-0.6496775006006333 -1.0445542845080342 1.2930236463900757" hirsh_quadrupole="_JSON [[-0.7320770190273129, -0.5567474489998298, -1.3999198010535985], [-0.5567474489998298, 1.5158421904374508, -1.1762676467447901], [-1.3999198010535985, -1.1762676467447901, -0.7837651714101377]]" mul_dipole="-0.5751297680665179 -1.0632732337053743 1.2346114296230004" mul_quadrupole="_JSON [[-1.5466928717248973, -1.7293707009838686, -2.0104528685699976], [-1.7293707009838686, 2.2193941253839844, -1.9049414876260597], [-2.0104528685699976, -1.9049414876260597, -0.6727012536590871]]" pbc="F F F"
O       -1.64674878      -1.55874753       3.10932565       1.55039787       0.32135865       1.59380209      -0.71013772      -1.10837378      -0.17413279      -0.06739102      -0.13511062      -0.41490223      -0.06528448      -0.35091570      -0.01982776      -1.08340055      -0.34564468      -1.13547480      -0.21497214       0.04677546      -0.15851988      -0.39850348      -0.01582830      -0.40490621      -0.07117705      -0.91829973      -0.28710950      -0.57744811
O       -0.91103399      -0.77174187      -3.83107615      -0.04039462      -1.20994508      -1.04434502      -0.76395911      -0.67024653      -0.33714908       0.11021217      -0.28330148      -1.41033156      -0.21948290       0.04498104      -0.17263673      -0.97999741      -0.40437022      -0.66497558      -0.16240701       0.00350726      -0.06473678      -1.08106637      -0.50651038       0.09255733      -0.21549338      -0.83816731      -0.32309960      -0.60246228
O        2.87559271      -0.31919727       1.89341545       0.27730760      -0.69034111       1.07945311      -0.65782845      -1.07396758       0.10285238      -0.58549961      -0.06928680      -0.59620599       0.21102638      -0.31855310       0.34773036      -1.03526494      -0.35416940      -1.05511272       0.14419685      -0.54711461       0.02483299      -0.46912000       0.19845434      -0.44633853       0.26002508      -0.96603799      -0.32002710      -0.54271782
O        1.70307398       3.21822071      -0.25767761      -1.69551551      -0.94155854      -0.55873084      -0.67010152      -0.93905145      -0.04310479      -0.34319496      -0.25148071      -0.90428264      -0.10038997      -0.27640769      -0.04261947      -0.54913807      -0.36733428      -0.94453359       0.06764972      -0.28269967      -0.27808672      -0.74723959      -0.12932099      -0.27508089       0.03949469      -0.49360818      -0.32636720      -0.57384701
O       -1.65053761       0.81142151      -2.53839588       0.68192035       1.23219478      -0.07689225      -0.81044918      -0.87915001       0.28576553       0.27294771      -0.07191068      -0.95560139      -0.15314781       0.06729103      -0.41368193      -0.86757373      -0.44925874      -0.92715907       0.16206232       0.43486577      -0.02477215      -0.99792856      -0.21409309       0.25717574      -0.39051908      -0.95389825      -0.36059300      -0.65179932
C       -0.53043330      -1.38844228       3.69914913      -2.63849330      -0.35154882      -4.86457157       0.83765197       1.50663464       0.30687457      -0.31957891       0.19915564       0.29662495      -0.20048118      -0.05115831      -0.22920758       1.48187129       0.17340595       1.57860124       0.32225615      -0.42571476       0.21191274       0.24995083      -0.15327975      -0.05476872      -0.20505315       1.14835334       0.19121630       0.43804325
C       -0.75848520       0.34428442      -3.30778551      -1.02052665      -0.73680413       1.45427895       0.93187058       1.04146747      -0.02276171      -0.36732710       0.31952284       1.35693991       0.50296980      -0.10784784       0.81282972       0.69420529       0.19758993       1.25826800       0.07399499      -0.57476193       0.10453608       1.19859183       0.71394175      -0.30097982       0.57327586       0.95757610       0.16080610       0.49094161
C        1.88359237      -0.23594132       1.18005443       0.15150449      -2.78185058       3.61302257       0.65209115       1.11086358       0.24908733       0.36126449       0.03477723       0.95142680      -0.92705876       0.48048397      -0.85074839       1.40803800       0.15306421       1.11146414       0.06868042       0.41850933       0.08030502       0.61131006      -0.62859792       0.41844636      -0.54101115       1.13616073       0.17813510       0.40667460
C        0.72142625       2.56794167      -0.73432565       4.85395956      -0.14194620       2.20349598       0.67201972       1.30026771      -0.22663736       0.61750599      -0.06192026       1.04189069      -0.02240072       0.51712052      -0.01271000       0.39944599       0.18093428       1.33710134      -0.30426967       0.55215001      -0.02575792       0.90370870      -0.00293535       0.53029656      -0.12701741       0.40858662       0.16769060       0.38288839
C       -0.65152788      -2.29168797      -1.36055267       2.05123377      -1.93744731       2.62920904      -0.08291879      -0.02464986      -0.06752361       0.21277992      -0.07430609      -0.01365137      -0.10106337      -0.21591821      -0.01585804       0.14062717       0.07598747       0.26592812       0.03184627       0.05330464      -0.07621347       0.07158691       0.04239163       0.01805973       0.10395657       0.12678179       0.01304250      -0.02608915