51
Properties=species:S:1:pos:R:3:force:R:3:mbi_charges:R:1:bec:R:9:pred_charges:R:1:pred_bec:R:9 energy=-223.70584106445312 dipole="_JSON [[-0.5949415564537048, 0.2541166841983795, 1.655936360359192]]" quadrupole="_JSON [[[3.3196067810058594, -1.6262661218643188, -5.231692790985107], [-1.6262661218643188, -4.135852813720703, 4.037044048309326], [-5.231692790985107, 4.037044048309326, 0.8162574768066406]]]" mbi_dipole="-0.5659228262188601 0.32077287012455447 1.7081898947497045" mbi_quadrupole="_JSON [[4.572043275432295, -1.628368934187893, -6.2406296234043195], [-1.628368934187893, -3.9718291505899286, 3.468702996608237], [-6.2406296234043195, 3.468702996608237, -0.6002141248423659]]" pred_dipole="-0.47709295638312077 0.30569232551537096 1.7490103888258774" pred_quadrupole="_JSON [[3.038262200881406, -1.2218012629387587, -5.367976002834007], [-1.2218012629387587, -2.4265459629453714, 3.0723052581297496], [-5.367976002834007, 3.0723052581297496, -0.611716237936035]]" pbc="F F F"
O       -0.09968421       3.69764495      -3.87461090      -0.05532379       0.74492151      -0.31701118      -0.65892947      -0.40439059       0.08804784      -0.14111194       0.09921117      -1.21163476       0.56143519      -0.12341823       0.39288013      -0.99764213      -0.32810944      -0.36594552       0.07264297      -0.17627329       0.09173550      -1.02661920       0.59873950      -0.14703198       0.32887620      -1.04276574
O        2.00525522       1.50159311       2.05055285       0.19369163       0.90767545       1.04440665      -0.79078788      -0.92205532       0.18161394       0.44973207       0.01754338      -1.06385153      -0.40253490       0.32435500      -0.43638358      -1.16466364      -0.38722959      -0.96359581       0.18347985       0.36603296       0.12308037      -1.03256702      -0.17634612       0.32676718      -0.35476804      -0.86383402
O       -1.65447462       0.87466305      -1.33296251       0.93867767       0.12096085       0.28832096      -0.60344517      -1.02554922       0.25573968      -0.26795449      -0.02275352      -0.59552175       0.19290248      -0.18385080       0.32133516      -0.67791947      -0.34713748      -1.11774099       0.28343344      -0.35799542      -0.01113302      -0.68591428       0.16172034      -0.29957518       0.27158052      -0.65817595
O       -0.52328533      -3.96049237      -1.03062141       0.35643563       1.47857654       0.78327334      -0.62164754      -0.78904053      -0.08147083      -0.00583912      -0.33639240      -1.13486396      -0.17463159      -0.16415409      -0.31654599      -0.47229968      -0.34323284      -0.79633796      -0.05096921      -0.01778498      -0.37837383      -1.11168361      -0.25249678      -0.13213918      -0.28003770      -0.45867911
O        2.00550103      -0.59602386       1.39342535       0.67479300      -0.04502178       0.02520335      -0.79528797      -0.81647021      -0.37656647      -0.10175112      -0.15842271      -1.42679627      -0.23003311       0.03138687       0.02790091      -0.78259988      -0.43840593      -0.81984806      -0.36048597       0.01767635      -0.25277960      -1.40727639      -0.22187275      -0.03443602      -0.11499111      -0.80903935
C        0.03494024       2.66147423      -3.25590086      -0.38306665       0.15344608      -0.97686356       0.83935070       0.35524309      -0.08114919       0.40443203       0.03359660       1.16032020      -0.20596650       0.37694861      -0.69873058       1.90519822       0.16152477       0.26191452      -0.08834229       0.43272689       0.01660785       1.15727592      -0.32590312       0.32441494      -0.44278347       1.75954795
C        2.36857390       0.60908687       1.27183473      -0.83916914      -0.55740643      -1.41293907       0.91848016       0.51645169       0.19394008      -0.43014389       0.16100684       1.73030811       0.47227118      -0.56296575       0.12164412       1.22951379       0.25892216       0.60519201       0.15198831      -0.42952284       0.18635435       1.64655077       0.19351399      -0.59388340       0.08397547       1.10919976
C       -0.53493744       0.67846102      -0.85442054      -0.91062880      -0.49182230      -0.44823980       0.65133482       1.03099797      -0.25362473       0.34047865       0.02455168       1.16648526      -0.66201296       0.28914501      -0.67162210       0.68529983       0.19680360       1.06487477      -0.37969205       0.43698081      -0.07383306       1.24637461      -0.46475327       0.34187543      -0.62381625       0.55098677
C       -0.03001851      -2.90460563      -0.58521116      -0.56472135      -1.99343598      -1.78315496       0.63947642       1.54003460       0.11661410       0.05958019       0.24577734       1.16806715       0.29746904       0.24549102       0.31589333       0.25466424       0.17829762       1.47121763       0.13821566       0.10884664       0.35543430       1.21794605       0.33392194       0.18547851       0.34730655       0.31446120
C       -1.08991182       1.22638941       2.62343025      -1.58104610      -0.22988009      -0.65891504       1.03573406       1.80914979       0.43692336       0.16649686       0.20703587       1.38385935      -0.30063377       0.29918792      -0.23251112       0.60645656       0.26499885       1.66669548       0.12747911       0.14325948       0.15705703       1.32552314      -0.30563140       0.35629946      -0.32905212       0.48666802
N       -0.26893908       0.40222371       3.13531637       1.39030683      -4.14959335       2.05968714      -0.95640993      -1.02714751       0.22480513      -0.03728177       0.16839828      -0.60203933       0.07354706      -0.13522667       0.14087124      -0.75432043      -0.28736451      -0.78329366       0.35282364      -0.23326331       0.14638515      -0.73602283       0.02444327      -0.21461706       0.27433896      -0.50776583
N        1.29839087      -2.73394680      -0.50748158      -0.33311576       0.84020948       0.39057216      -0.54738277      -1.27749265      -0.01433465       0.02258910       0.03758746      -0.77933174      -0.10450946       0.03674161      -0.11142419      -0.39203513      -0.31243077      -1.17921984      -0.04109341      -0.08617716       0.06319579      -0.65274143      -0.07032471       0.02349662      -0.06133589      -0.36317259
N       -2.34372520       0.95825559       2.36423159      -1.37851191      -0.05871591       0.82718062      -0.64764744      -1.11767016      -0.39114007      -0.04403660      -0.24342706      -0.52822432      -0.08013760      -0.06944659      -0.10460743      -0.44939249      -0.29517013      -1.15598989      -0.22632377      -0.06800240      -0.15813777      -0.48859698      -0.11015209      -0.13493553      -0.05892520      -0.44553995
N        0.37598372       2.73777485      -1.94780445      -0.15105075       0.16285446       1.25744224      -0.64401889      -0.51038104       0.11423213      -0.24773858      -0.02242043      -0.31260007      -0.10052168      -0.22417719       0.56940597      -1.29397096      -0.30125716      -0.50888675       0.07808101      -0.20815560      -0.00530544      -0.37012145      -0.13089493      -0.16382542       0.32643300      -1.12898684
N       -0.20874071      -0.45958674      -0.21447253      -0.30394390      -0.29120436       0.08667816      -0.60779709      -0.67711645      -0.04301010      -0.03039208       0.11946651      -1.18686356       0.49933999      -0.08454247       0.28021608      -0.73925338      -0.30369833      -0.68847620      -0.06901547      -0.01540273       0.07070220      -1.12661755       0.37568656      -0.12880382       0.33529812      -0.63525832
N       -0.54268211       2.34342456       2.33297682       1.33268833       3.58953810      -0.82777399      -1.00198925      -0.79409207      -0.29643261       0.25440997      -0.31173795      -1.07822978       0.02190804       0.10923581      -0.04589793      -0.58304493      -0.27375585      -0.55249298      -0.35517177       0.04663792      -0.18764006      -1.03369641       0.06131488       0.04519946       0.07275082      -0.33940035
C       -0.23363945       1.35760331      -3.96186399      -0.17890871      -0.46526659      -0.15988439      -0.67567700      -0.04545843      -0.14049628      -0.03690821      -0.08422972      -0.17483679      -0.13180482      -0.02919629      -0.10083000      -0.06235859      -0.13878177       0.07627898      -0.06579304      -0.03589127      -0.03771230      -0.13183169       0.00375625      -0.00009187      -0.03449024      -0.08480316
C        2.32177234      -3.59768438      -1.05443811      -0.90832019      -1.14155507      -0.05337191      -0.18855183       0.44217526      -0.28704620      -0.10377816      -0.27140063       0.45460178       0.04687184      -0.15100381       0.10879010       0.27922639      -0.03260506       0.50431174      -0.26241153      -0.10418941      -0.24569783       0.37098271       0.04848193      -0.18160065       0.12944910       0.29039454
C        2.99855423       1.05678606      -0.04498324       0.70890200       0.53113496       0.16366157      -0.49048296       0.05780981      -0.01333296       0.03656415       0.00779779       0.07789158       0.06340978       0.14137954       0.08993208      -0.22099961      -0.07548151       0.04819848      -0.01091452       0.12571463      -0.06354000       0.04049319       0.07010651       0.25738996       0.09046809      -0.10081623
C       -2.96475577      -0.34798434       2.56692696      -1.01641238       0.10827665      -1.06976867       0.03071678       0.29200629       0.18153752      -0.01115588       0.29196944       0.53114716       0.04266902      -0.09414533       0.02320028       0.26545803       0.02382391       0.23470327       0.18415208       0.12389740       0.17942601       0.52249801       0.10229264      -0.10555093       0.03505274       0.39516091
C       -3.01351595      -1.11770213       1.23568559       0.17637160      -0.68991220       0.41694376      -0.26585633       0.04336375       0.03520761       0.00462417      -0.03114074       0.03463213       0.06523725      -0.01132635      -0.02308936      -0.01879331      -0.09422971       0.06509753      -0.04753421       0.02848280      -0.13105670       0.08208229       0.04161646      -0.00874070      -0.03032573       0.08063415
C        2.05415487       1.03830433      -1.24599195      -0.88187283      -2.04687977      -0.13824083      -0.23485014       0.07618072       0.01791186       0.08455816      -0.02964085       0.03208264       0.12372100       0.07346982       0.06578658       0.04978108      -0.09843674       0.16554934       0.04401123       0.01080768       0.00024392       0.11024657       0.05796113       0.11962758       0.06131948       0.01325574
C       -1.72313380      -1.95270920       0.99170113      -1.07011867      -0.00029627       0.24656223      -0.23595183       0.07144236      -0.03710742       0.00438549       0.03644443      -0.06570812      -0.01178484       0.00150423       0.05240805       0.04754603      -0.09226434       0.12552324      -0.07105444       0.04663907       0.00432505      -0.04439577      -0.04325364      -0.02011118      -0.03557134       0.04411396
C        0.62762344       1.66733909      -0.96767187       0.96142334       1.25014436      -0.67059582      -0.01903184       0.07633887      -0.18352053       0.04271909      -0.21831643       0.28833305      -0.27416515       0.01183667      -0.31486778       0.40106126       0.07937638       0.22796313      -0.16705619       0.04072053      -0.15639696       0.31331816      -0.17037298      -0.06048631      -0.13834268       0.40231410
C       -0.97061574      -1.70926285      -0.28760892       0.49724683       0.59225225      -0.30890733      -0.02551355       0.15259503       0.41301115      -0.14297590       0.20367811       0.47509732      -0.12717783      -0.04852507       0.00486935       0.22307909       0.07751769       0.24106134       0.38182354      -0.03226711       0.21734539       0.43923721      -0.02179974      -0.06109509      -0.01510617       0.25752938
H       -0.59808570      -0.49995264       3.46941757       0.45396480       0.54540825      -0.40807649       0.40442386       0.18241529       0.00283341       0.05050539      -0.01092432       0.19869781       0.01866506       0.02230832       0.00912621       0.38426403       0.21961717       0.22571194      -0.02183913       0.08287606      -0.04141273       0.22230536       0.01492053       0.04850527      -0.02034331       0.31542638
H        0.70730829       0.49371976       2.84116793       0.30740514      -0.08028433       0.39507863       0.47924966       0.78666119       0.00684513      -0.29122408       0.14915892       0.12845418      -0.01345689      -0.17346963       0.01227206       0.45032251       0.20154710       0.62836725      -0.01762993      -0.15147851       0.13129967       0.22165939      -0.04648526      -0.13591124       0.02232521       0.43409598
H        1.60194707      -1.94491816       0.03050160       0.53262007       0.22640190       0.10975932       0.37740675       0.13585848       0.11966175       0.11007721       0.10737939       0.50873306       0.09735255       0.06183460       0.12983847       0.28784358       0.23655079       0.15532644       0.11998563       0.09083321       0.09327362       0.52462971       0.09092671       0.13653803       0.18762967       0.35212979
H       -2.89540839       1.75274086       2.10634804      -0.38714385      -0.15990679      -0.20343670       0.38595280       0.19985037      -0.09410589      -0.04022943      -0.09328328       0.14904204       0.04535620      -0.01273166       0.04271156       0.29066491       0.25709853       0.20599313      -0.09397739      -0.02219500      -0.01032548       0.15990527       0.03347329      -0.00579761       0.01042665       0.26127312
H        0.39111662       3.71815658      -1.63156056       0.04432704      -1.07973206      -0.24319512       0.35838926       0.22563136       0.00707910      -0.02245710       0.00543971       0.15502771       0.00990585      -0.03876357       0.05911079       0.07498909       0.25262675       0.24881046       0.02872356      -0.02871668      -0.01068871       0.16244063      -0.02543466       0.00013527       0.07973757       0.15182504
H        0.61476171      -0.48594388       0.38640422      -0.04688004       0.10822669      -0.25053450       0.40297300       0.54939498       0.02581058       0.24658476      -0.04747687       0.11628324       0.02548701       0.17168059       0.14113179       0.39874401       0.24675898       0.57031715       0.04917613       0.14091703      -0.05997922       0.12027599      -0.04250433       0.26933682       0.05901184       0.39916968
H        0.47043270       2.30240798       2.39694405       0.22660424       0.55345559      -0.12426329       0.49163461       0.67333877      -0.11283065      -0.20898373      -0.10021572       0.25294949       0.16211109      -0.04450500       0.17240739       0.33156480       0.20541042       0.63181710      -0.02803674      -0.10354528      -0.09918462       0.39440554       0.16282566      -0.03882679       0.01560092       0.17411014
H       -0.95774251       3.11239386       1.85538042      -0.37365392      -0.02070029      -0.26974061       0.42497951       0.15216091      -0.02934702      -0.04005459      -0.02964750       0.33367434       0.07401927      -0.06023163       0.08318537       0.31423587       0.21903844       0.11534810       0.04051253       0.02118908      -0.03139353       0.32081789       0.07909092      -0.01850815       0.05359469       0.25044200
H        0.44583040       0.57659233      -3.60922050      -0.33145759      -0.11392879      -0.11762272       0.17852999       0.00947023       0.09795402      -0.04848921       0.04895324      -0.04426986       0.03204107      -0.05305153       0.03427558       0.04481486       0.07346023      -0.00715414       0.08446457      -0.11568330       0.08204446      -0.12057301       0.09154990       0.01513285      -0.02762311       0.04904459
H       -1.28249538       1.08877611      -3.76230001       0.53876251      -0.11166706       0.20292503       0.21190190       0.01463959      -0.03000250       0.02738864      -0.01259461       0.04100486      -0.02333006       0.03885990      -0.04578165       0.13611502       0.06672617      -0.07337781      -0.06013287       0.03754735      -0.06096303      -0.02267104      -0.01303682       0.01940589      -0.02666262       0.10602568
H       -0.16840538       1.46231604      -5.06479025       0.31522149       0.23832867       0.89234495       0.19489665       0.09690695       0.00047595       0.02402133      -0.00123539       0.04909695       0.04479488       0.00897972       0.00544637      -0.07592122       0.06467399       0.04314444      -0.00014384       0.02260032      -0.00273870       0.00527989      -0.03402564       0.00954589      -0.03086324      -0.08107015
H        2.35077691      -4.56763697      -0.51285452       0.07946191       0.55997068      -0.38493395       0.11547660       0.00434839       0.01589096       0.02631103       0.12054937      -0.12763516       0.04376863       0.00622028       0.08477857      -0.00048705       0.06855109       0.00458635       0.01149102      -0.00025858       0.05500337      -0.11951631       0.04098590       0.00982413       0.03099385       0.00082259
H        3.26297855      -3.08679318      -0.93875968       0.27349973       0.03720813      -0.08584478       0.12794811      -0.06831805      -0.00867631       0.01255485      -0.07802264       0.01465443      -0.01561875      -0.01080603      -0.02437503       0.06744038       0.07544795      -0.14549728       0.03697893       0.02457977       0.00451782      -0.01819174      -0.02365816       0.03246902      -0.04430806       0.03085262
H        2.10512567      -3.81463885      -2.12107372       0.21513520       0.16942754       0.66031754       0.12637237       0.01326683       0.01367345      -0.05051422       0.06103712       0.02886079      -0.01403193       0.04649238      -0.05609582      -0.09204492       0.06884683       0.00288226       0.01149371      -0.00646227       0.03575756      -0.02028101      -0.06176768       0.02874972      -0.07549989      -0.12156057
H        3.87648940       0.46757102      -0.27287596       0.08889261      -0.36248949      -0.05909521       0.16252574      -0.06769999       0.05899606       0.01669612       0.11137689       0.01831765      -0.00328791       0.01715748      -0.00257956       0.01897682       0.06921175      -0.12387335       0.05223267       0.02797877       0.07185243       0.02531343      -0.00625257      -0.00303309      -0.01331611      -0.01977699
H        3.36539626       2.07848835       0.04643101      -0.10752411       0.02511557       0.36481404       0.15650193       0.02845817      -0.02955658      -0.00919883      -0.09955782      -0.10156390      -0.01602560      -0.01906123      -0.01210271       0.00968925       0.06732651       0.01321042      -0.06218547       0.01452921      -0.06252614      -0.09857270       0.00577604      -0.03966808      -0.01226877      -0.03276141
H       -2.47805738      -0.90732116       3.36319017       0.16529579       0.03715314      -0.17202689       0.09685380       0.01848391       0.02436816      -0.12075785      -0.01237401      -0.01956360       0.02363215      -0.05231535       0.01761862      -0.01374342       0.07171503       0.07103135       0.01826173      -0.11267272       0.01235212      -0.03476257       0.03666863       0.00939901       0.04831721      -0.08823110
H       -4.00684643      -0.26556939       2.90604591       0.42601898       0.62973559       0.04336054       0.10185822      -0.10570512      -0.00369290       0.08687348       0.01272271       0.00013268      -0.04775633       0.05476560      -0.03469684       0.04500212       0.07069705      -0.17878976      -0.02692520       0.07868806       0.02427620       0.00114183      -0.06269918       0.11707258      -0.00884887      -0.02751833
H       -3.89062715      -1.75903368       1.32432759       0.22371082      -0.41212142      -0.06958887       0.11264816      -0.11188735      -0.06598212       0.04039857      -0.10263316      -0.03877344      -0.02311118       0.05617572      -0.01138095       0.02943646       0.06571577      -0.13689953      -0.07723626       0.03513773      -0.07184349      -0.06789309      -0.02271622       0.03375756      -0.02815429       0.00033994
H       -3.26330948      -0.49514151       0.38135415       0.31473190       0.48379892       0.15516020       0.15814586       0.10523312       0.04811233      -0.01601854       0.06863095       0.00693037      -0.00414809      -0.02402356       0.01637790       0.00905049       0.05995214       0.09779787       0.06302061      -0.05882334       0.09370114       0.00800982      -0.00224316      -0.07398194       0.01436941      -0.06297538
H        2.53519511       1.60251737      -2.04407310      -0.23809750      -0.08693293       0.05139241       0.15710005       0.01460429      -0.03504092       0.02780038      -0.03036293       0.01292221       0.06564903       0.03963175       0.04395823      -0.05131175       0.05916467      -0.01241866       0.01672233      -0.00250313      -0.02344033      -0.00641681       0.05118668       0.04454905       0.06006152      -0.10211000
H        1.95523334      -0.05170214      -1.60279000      -0.05447916       1.66031575       0.42620474       0.11242289       0.00008077       0.00996508      -0.06059870       0.00870805      -0.06533822      -0.07742360      -0.05159977      -0.07783167       0.02372091       0.05320127       0.01487834       0.03995413      -0.01571352      -0.02844529      -0.09313441      -0.02437691      -0.06262644      -0.07604920       0.02495001
H       -1.04650235      -1.78360724       1.82299697       0.18662277      -0.20172700      -0.00480265       0.10790940      -0.03735253       0.00783130      -0.05692278       0.00828690       0.08564529      -0.04517569      -0.04044942      -0.02714889      -0.09042757       0.06075063      -0.01920217       0.04109241      -0.06980321      -0.00130024       0.05963746      -0.02559059      -0.07840475      -0.02942975      -0.01674431
H       -2.01718903      -2.98752499       0.99433255       0.07065387      -0.49045056       0.12316395       0.14162292       0.03503687      -0.05260830       0.03153009      -0.02001990      -0.06868759       0.02163137      -0.01093445       0.01819512       0.06031998       0.06855766      -0.00576265      -0.00308898       0.01854179      -0.06805313      -0.15586480       0.02819739       0.02140562       0.00615636       0.01485126
H        0.68579650       2.21001291      -0.00894010       0.02843352      -0.41935375      -0.30798122       0.14429590       0.06158560      -0.01052065       0.00738466       0.00442285      -0.00359177      -0.05198636       0.01721709      -0.01060495      -0.00178632       0.06262916       0.01252640       0.04885700      -0.03104145       0.02373690       0.03018308      -0.05109720      -0.01677334      -0.02257961      -0.10054573
H       -1.65240502      -1.64693213      -1.15563989       0.37437558      -0.05452988       0.51418495       0.16417712       0.02765254      -0.02716971      -0.01090646       0.00801927       0.02842658       0.01619621      -0.00705651      -0.02725107       0.00999710       0.06898509      -0.03959224      -0.07404402      -0.04001918       0.03419319       0.00336348       0.02653308      -0.01592004      -0.00958121      -0.05215890
51
Properties=species:S:1:pos:R:3:force:R:3:mbi_charges:R:1:bec:R:9:pred_charges:R:1:pred_bec:R:9 energy=-222.33132934570312 dipole="_JSON [[1.0322149991989136, 0.16630588471889496, 0.4191303551197052]]" quadrupole="_JSON [[[-5.087343215942383, -1.224889874458313, 4.327417850494385], [-1.224889874458313, 3.5940589904785156, -2.345947504043579], [4.327417850494385, -2.345947504043579, 1.4932823181152344]]]" mbi_dipole="1.0762776206773677 0.3251493455958599 0.40734544051074395" mbi_quadrupole="_JSON [[-5.495201597425695, -1.676907185159028, 3.9176393236474985], [-1.676907185159028, 4.159181538144333, -2.845889668657779], [3.9176393236474985, -2.845889668657779, 1.336020059281363]]" pred_dipole="0.9602159397864679 -0.04937339951811405 0.41854158327519553" pred_quadrupole="_JSON [[-3.9806294078578257, -1.342973369048395, 3.6104272288383292], [-1.342973369048395, 3.6934203428826033, -2.3281082320311373], [3.6104272288383292, -2.3281082320311373, 0.28720906497522236]]" pbc="F F F"
O        2.66601086       1.80883050       1.62104464      -0.63101751      -1.73794460      -0.33757561      -0.68905544      -0.79969069       0.31506961      -0.31889478       0.35272395      -1.34570317       0.15773879      -0.25871021      -0.06099795      -0.59895646      -0.34196740      -0.72840023       0.21768701      -0.26397201       0.10509294      -1.24704289      -0.05227274      -0.26233888      -0.12991261      -0.65317655
O        1.93373716      -0.14986321      -2.41173863       2.41782761       1.21407974      -0.73734182      -0.78752619      -1.58362933       0.06429846      -0.08555258       0.12967417      -0.67674940       0.13891223      -0.11312387       0.12304939      -0.72837732      -0.40811288      -1.46959484      -0.03201404      -0.04389298       0.09598643      -0.63466704       0.16427204      -0.26589218       0.12327936      -0.75871068
O       -1.31919205       1.72427154       1.46598482       0.94474387       0.31944969      -2.11916065      -0.62468261      -0.56800526       0.09484353       0.28146564      -0.07506327      -0.79993787      -0.20549515       0.18042034      -0.41966673      -0.87857141      -0.35423753      -0.56708139       0.13182127       0.30154884      -0.08523536      -0.79823542      -0.17963833       0.20260236      -0.49773422      -0.97271687
O       -4.10078716      -2.12796736       0.03780162       1.50091887       1.33247828      -0.52233535      -0.61746597      -1.00690205      -0.40654573       0.24853675      -0.40224730      -0.66560587       0.22826107       0.02471488       0.06571426      -0.75750592      -0.34374431      -0.92261320      -0.35900012       0.26520106      -0.46597451      -0.65433609       0.25140047      -0.04139790       0.03047271      -0.78303909
O        0.03648892      -1.10100269      -2.15257072      -1.80700135      -1.74509454       0.44544837      -0.79008400      -1.13567541      -0.17590058       0.13983727      -0.44242728      -1.03413695       0.19176980       0.28128491       0.16782793      -0.73719829      -0.44632339      -1.13995600      -0.25859576       0.10727924      -0.28223497      -1.11288524       0.04426408       0.19173017       0.21371958      -0.74295473
C        1.95435059       2.75642085       1.31728363       0.92403561      -0.14995617      -0.46486866       0.86905462       1.27232967      -0.08487162       0.89569561      -0.25404439       1.31956018      -0.04738272       0.88442451       0.13636007       1.00921658       0.19263446       1.21096289      -0.11354035       0.85429507      -0.20278765       1.17728722      -0.02437036       0.91429913       0.19040918       1.05126953
C        0.71591246      -0.13018364      -2.48911476      -0.98769468      -0.05715887      -0.80470467       0.91798490       1.80478776       0.02036512      -0.04442646       0.38575987       1.21396952      -0.45560924      -0.10718749      -0.36643290       0.36386155       0.23873696       1.73128915       0.14847028      -0.09301167       0.19065592       1.32873893      -0.46524882       0.00586639      -0.40033063       0.46223330
C       -0.84727776       1.26929021       0.39833122      -0.85108340      -0.31125310       3.35618210       0.63463336       0.58133428       0.23472328      -0.40768841       0.31370009       1.47187403       0.46717395      -0.29432881       0.62700197       0.78869652       0.17679580       0.53843492       0.05514831      -0.35457474       0.32241598       1.25354338       0.48245642      -0.21076614       0.69350421       0.83608878
C       -3.15642786      -1.41761732      -0.36152792      -0.97990012      -1.32327676      -0.85586596       0.67577958       1.01506947       0.46611153      -0.21474003       0.51619622       0.49702097      -0.26875366      -0.02345827      -0.19872254       1.55428159       0.19094469       0.97853285       0.48625076      -0.28046775       0.58212519       0.56177634      -0.31328830      -0.04123942      -0.12528431       1.37084210
C        2.12083387      -1.30905151       0.59907502       3.84818172       4.62254000       0.41324344       1.03253734       0.81828293       0.44170141      -0.36199832       0.24333518       1.28080748       0.26942787      -0.52591535       0.05325770       1.64450529       0.26890603       0.89915752       0.30914569      -0.32675248       0.59826565       1.03794539       0.35452920      -0.34339792       0.25145423       1.60970950
N        2.98357177      -0.53022712      -0.05589962       0.89955610       1.00976145       0.31281698      -1.04201198      -0.99381846      -0.24964280       0.24739836      -0.05467118      -0.76342504       0.15879742       0.08706653       0.30044765      -0.81524740      -0.33860964      -0.86355996      -0.31071454       0.19151147      -0.28024703      -0.61445373       0.09558707       0.28642094       0.14970416      -0.62898970