368
Lattice="10.024 0.0 0.0 0.0 17.3620773 0.0 0.0 0.0 29.60299847" Properties=species:S:1:pos:R:3:forces:R:3:F_std:R:3:F_diff_avg:R:3:F_DFT:R:3:F_CACE:R:3:F_diff_atom:R:1:F_std_atom:R:1 energy=-1665.794921875 pbc="T T T"
Li       1.03660885       5.13202683       5.09175600       0.01482883      -0.00685335       0.07200333       7.98145390      11.34486961      28.27005386      22.99059203       3.58348064      48.92927045      -0.00358855      -0.00047787       0.00784179       0.01790092       0.02239250       0.01407244      31.99487684      31.48977005
Li       3.01748217       7.87901216       4.83540646       0.01449950      -0.02364883       0.05594522      14.54779720       6.43447208      29.05060005      17.49468428     -16.89482393      50.51803390       0.00067237      -0.00039030       0.00138543       0.03540245      -0.01706327       0.00334080      38.57447157      33.12066119
Li       0.94777842       2.10027921       5.11229693      -0.01133431      -0.00826569       0.06157561       6.90488148      10.07916164      28.28482819     -14.78443298     -11.05254294      55.38951358       0.00256221      -0.00374440      -0.00142838      -0.01779139      -0.02017015       0.00601041      27.19209247      30.81068635
Li       0.81911567       6.45297160       1.88863459      -0.02206767      -0.00935541      -0.07662743      12.41518784       2.18376517       9.56712341     -15.04409404      -6.30783424     -90.72275110       0.00281223      -0.00076237       0.00087389      -0.01815980      -0.00347337      -0.08696876      90.35212627      15.82515623
Li       0.22079273       2.50197465       1.90073186      -0.01040438      -0.00059670      -0.08157182      10.71385765       3.07056403      14.40290451     -10.77167699       1.04153882     -92.45256793       0.00129704      -0.00410353       0.00054589       0.00567269       0.00048629      -0.07399066      74.80581559      18.21150097
Li       0.31623560       8.06288194      28.51616523       0.01596045      -0.01386143      -0.18691765      10.61724567       7.33932638       6.40185881       8.37399154      -0.44428750    -202.42963358       0.00422413      -0.00926386       0.01188666       0.00699730      -0.01259453      -0.18190143     193.83654882      14.40747770
Li       1.65361698       4.38358752      26.96031541      -0.01427951       0.04326673      -0.12765723       8.13827610      10.38782406       9.59448242     -22.63961740      32.80812275    -120.62481382       0.00145402       0.00048667      -0.01257146      -0.03506899       0.04267794      -0.14759348     146.09921084      16.31540743
Li       2.50649634       8.04291486      25.60380507      -0.00048155      -0.00985500      -0.17824090       7.12513781       8.96031380      12.63638401      -3.80401246      -7.68190844    -170.09755716       0.00046613       0.00326415       0.00501736       0.00063479      -0.00368513      -0.14424562     149.42475744      17.05089479
Ga       1.01311150       8.05476135       6.86589567       0.03124820       0.00797400       0.22406322      17.53388977      10.61314011      48.27814102      57.40626174      17.54105698     177.49371619       0.00093484      -0.00302560       0.00047058       0.07118823       0.03168783       0.10734911     132.52766203      52.44859325
Ga       1.08593230       5.15172263       9.06696386       0.02287870      -0.00798004       0.48413688       5.04660511       7.89694023      22.96778107      20.82978688      -0.63355769     444.41746497      -0.00203858      -0.01395325       0.00126290       0.01466685      -0.02615197       0.43674865     435.97674091      24.80622614
Ga       3.58692701       6.59282800      11.26742963       0.00746324       0.00791219       0.77153176       2.74649358       2.98949575      35.62534714      -1.02169682      14.73677673     710.86512855       0.00518232      -0.00923371       0.01147097       0.00083924       0.00096492       0.67671287     665.33424676      35.85590148
Ga       1.05645963       2.26239291      11.25877460      -0.00719057      -0.00300115       0.75237143       3.09220505       1.48159361      36.67401505      -7.44002006      -2.69443729     711.24603365       0.00217585      -0.00230255      -0.00619032      -0.00112939      -0.00485577       0.65749770     663.70116124      36.83395487
Ga       1.07593872       8.00823446      13.46052189      -0.02222437      -0.01454248       0.52629775       3.92474699       6.18971872      14.90652752      -9.34288196      -4.59459397     535.18097994      -0.00811064      -0.00262341       0.00519090      -0.01130213       0.00116220       0.54695874     541.79046587      16.61086450
Ga       1.04224550       5.09355776      15.66697605      -0.00487787       0.01883050       0.07880962       4.71903133       4.43883133      51.97098541      -3.51697257       8.38470369     161.14997127       0.00148078       0.00511934      -0.00475562       0.00508141       0.01380155       0.21864074     223.59400477      52.37323558
Ga       3.48983956       6.59304780      17.85174217       0.08032863      -0.02982060      -0.22448838      10.11442947      15.89760017      41.32700729      74.50616636      -2.73548429    -148.59595729       0.00276131      -0.00875902      -0.00478488       0.08182243       0.00746094      -0.12487760     144.69280976      45.41978540
Ga       1.11877132       2.16902939      17.86039216      -0.02826866       0.08692849      -0.21909346      12.83842278      15.57628155      40.79874039     -39.13225834      66.47418160    -152.43117241      -0.00457444       0.00877818       0.00379748      -0.06204835       0.06807867      -0.12118942     149.80495191      45.51903848
Ga       0.93825948       7.90636316      20.24037348      -0.00127146      -0.01846241      -0.33585471      19.28669930      13.57450199      18.63581276      10.85202897     -22.68862648    -309.04608095      -0.00159804       0.00313435      -0.00048376       0.01511088      -0.00817745      -0.30086023     301.05343140      30.05889871
Ga       1.15846621       5.09351236      22.50526159      -0.04876377       0.04188196      -0.24055481      10.87678242       4.17747545      47.03371811     -46.29898499      40.92030002    -202.13038698      -0.00811460      -0.00290970       0.00262888      -0.04049187       0.03879141      -0.16122970     172.15372325      48.45540564
Cl       3.19628507       5.88103274       2.82746764       0.00231846      -0.01089558       0.05418934       8.52985001       3.52084994      18.72237968      13.10975697      -2.04036002      56.26848097       0.00036967      -0.00499713      -0.00627266       0.02116549      -0.00916726       0.07774474      86.65321469      20.87300233
Cl       0.16712419       8.38351159       3.03588666      -0.01849106       0.02589748       0.00406286      11.77198887       5.87483549      25.29444885     -14.24033821      20.90809986       5.95605526       0.00039404       0.00360047       0.00902826       0.00598891       0.01653941       0.05147196      44.72344361      28.51144606
Cl       1.53857434       4.09972936      29.40631615       0.00962072       0.00970547       0.20195302      23.71552277       5.42685652      30.52191544      -7.31652985       3.38667509     179.79098366      -0.00220884       0.00927359       0.00511950      -0.04850960       0.00556714       0.16829567     169.65836438      39.03157842
Cl       2.29367424       7.79891196       0.18747431       0.00036785       0.04539974       0.11142460       5.02906036      15.51332092      18.50492477      -5.07471012      28.67663542     141.29684687       0.00316033      -0.00156391      -0.00284075       0.00090312       0.02924274       0.14800157     153.97256309      24.66549847
Cl       0.82423623       6.54179391      26.61405328      -0.01694373      -0.02515921       0.12644468       5.85675621      14.44138336       7.82208157      -9.65500822     -10.37862938     130.88091086       0.00275388       0.00192883       0.00073893      -0.00367158       0.01114211       0.13821958     137.93875521      17.43674588
Cl       0.18020942       2.48532641      26.81488269      -0.00744670      -0.02090340       0.15392023      15.69524765      21.98949051      17.71689415      -2.04953647      -2.35760987     180.13553083       0.00145427      -0.01111476       0.00316147       0.00567546      -0.01096923       0.19771571     194.60008203      32.30738043
Cl       2.85036630       5.76365581      23.72316891       0.01462595       0.05774703       0.03985721      12.96606350      16.06991768      25.62080956       8.51730776      51.95367722      37.38122686      -0.00653520       0.00299294      -0.00029192      -0.01625658       0.03758442       0.01856646      40.57972664      32.90572806
F        0.12141119       0.62644493       8.00992071       0.05276495      -0.01834816      -0.12069409       7.65396881       6.15263414       4.99610615      45.67897477     -16.53084138    -113.04303936      -0.00405254       0.00341405      -0.00594692       0.04444060      -0.01795296      -0.11525067     121.47198651      11.01813151
F        2.64561568       4.95638363       7.99811326       0.03819861      -0.00223612      -0.11330350       7.40303087       9.18271255       9.91125393      25.87790511      -2.74792570    -100.49032648       0.00112030       0.00161583      -0.00468233       0.02900892       0.00273204      -0.08998948      89.75706597      15.40649312
F        0.43469086       6.62361113       8.08058840      -0.02500983       0.04811822      -0.12445237       5.69116926       4.84354305       1.13277221     -17.90189886      39.74112826    -111.82212206      -0.00289489       0.00758383      -0.01311029      -0.02714107       0.05296370      -0.12481019     122.97998823       7.55860369
F        2.59052708       8.20427913       8.03590711      -0.04230050      -0.03756449      -0.10341330       5.05330706       7.53671074       8.79192352     -26.33844908     -21.07314753     -97.02969694      -0.00736134      -0.00702912      -0.00249232      -0.03227073      -0.03088503      -0.09805331     101.59470932      12.63470776
F        0.13644022       3.83678478       8.08395337      -0.03508555      -0.03063451      -0.12003691       4.36208153       4.58876228       3.88532090     -29.24629427     -28.71855707    -116.83816029      -0.00562708       0.00524283      -0.00531710      -0.03594642      -0.01943772      -0.11701539     118.34229977       7.42833851
F        1.77669005       6.72527547       5.74290089       0.01764055      -0.02772391      -0.06199111       8.17331505      14.47477055      15.88121986      18.35682245      -8.35847618     -55.22699557      -0.01014523      -0.00044605      -0.00467161       0.00526812       0.00634910      -0.04852960      46.98157840      22.98989355
F        1.92853565       3.62925778       5.77372501      -0.02513646       0.01269078      -0.02496281      13.19554806       6.11117506      17.88123512     -19.71902717       3.78533747     -33.34820713       0.00262249       0.00083099       0.00128460      -0.01350138      -0.00241500      -0.02644077      32.23680779      23.04793957
F        2.65531775       7.82733915      12.45173429       0.08238371      -0.04144778      -0.23858358       6.62365723       3.17715192       5.41567612      74.01296181     -39.59859016    -226.65463231      -0.00158554       0.00187281      -0.00413640       0.06533914      -0.03359891      -0.22593823     234.37834265       9.12670134
F        0.11846448       3.49467946      12.44038065       0.09163997      -0.03732027      -0.23785278       6.91366911       3.36501670       4.22820807      78.26927043     -36.36922088    -230.00029450       0.00225401       0.00249543      -0.00242354       0.07383260      -0.02869721      -0.22990912     240.51229583       8.77495877
F        2.96451014       5.17131443      12.45889259      -0.00989510       0.10038826      -0.23926467       3.08518243       7.31238985       5.23790455      -5.68882325      89.57329753    -233.51165220      -0.00126469      -0.00128589       0.00268932      -0.00731807       0.08111952      -0.22567916     242.85686662       9.50920817
F        0.45610974       0.83819508      12.45297762      -0.00324222       0.09440050      -0.24057184       2.81414437       6.04435015       5.39082479       1.17968218      83.93255828    -234.09527036      -0.00271119       0.00118383       0.00077566      -0.00142089       0.07815386      -0.22945613     242.76063832       8.57406375
F        0.09724784       6.76039409      12.44388861      -0.08485142      -0.04792558      -0.24334231       5.06717014       5.32538509       5.13114166     -73.31497373     -42.16155393    -232.98106133      -0.00373387       0.00237561      -0.00221690      -0.07068528      -0.03660699      -0.23039524     240.97196777       8.96462795
F        4.18127849       8.05988855      10.23930180       0.01248011       0.11380141      -0.22303021       5.88914204      10.06270504      11.64573002       6.25147895      93.71565422    -197.63350456       0.00083328       0.00360244      -0.00527503       0.00272664       0.08821729      -0.19492257     207.67630361      16.47917032
F        1.69661748       3.72705559      10.24951780       0.02144480       0.11856548      -0.22779785       4.96016264      12.25615025      15.39077950      13.34133365      97.74916998    -207.08164378       0.00314020       0.00040799       0.00490400       0.01245894       0.08585162      -0.18685581     210.14108964      20.29020764
F        2.01003198       6.38473578      10.24663950      -0.10472693      -0.03975958      -0.22695777      12.04036045       6.90088701      14.59522343     -85.08400236     -41.22631306    -204.01158089       0.00012964       0.00809856       0.00145132      -0.07461517      -0.02856708      -0.18939322     208.21333825      20.13983784
F        0.13220754       6.34583248      16.83979652      -0.02234164       0.02076101       0.05175473       5.36975479       6.65195274      17.38240814     -10.44958450       5.72789895      21.36630499      -0.00433141       0.00517369       0.00296305      -0.01300640       0.01261774       0.00939132      13.11457156      19.37087645
F        0.43939352       3.64494989      16.87607234      -0.01426164      -0.05001821       0.05301848       2.53677797      16.35602188      23.80832481     -10.65003574     -23.51165317      16.48326054      -0.00060369      -0.00491494       0.00303792      -0.01034510      -0.01811631      -0.00554755      18.51706061      28.99639675
F        2.93931642       8.08202919      16.84993644      -0.00698744      -0.04753977       0.03909305       4.26892996      12.35533905      15.45795631       1.31698278     -33.38646181      19.29879559      -0.00286328       0.00494553      -0.00407039      -0.00074467      -0.02251364      -0.00416423      27.54093919      20.24417396
F        2.57325513       5.30808411      16.82540858       0.03379063       0.03156398       0.04443514       8.47209835      11.61874866      19.70663643      19.04940892      20.79176873      16.88121952       0.00232347       0.00379115      -0.00006701       0.01503954       0.02660458      -0.00083647      26.12935310      24.39514891
F        0.10373442       0.95298281      16.84950897       0.03405741       0.01791953       0.03353253      12.32397938       2.59968424      14.30203152      22.25803527      20.56027610      23.19278152      -0.00670523      -0.00709888      -0.01195538       0.01152191       0.01242138      -0.00632885      27.29335126      19.05746393
F        2.02387813       3.84441542      14.65216573       0.03446859      -0.02065609      -0.10217534       3.11334538       2.84452915      11.48469925      34.18279566     -20.12339617    -112.14627286       0.00490481      -0.00012229      -0.00536060       0.04317574      -0.02131635      -0.12543720     127.79766089      12.23448333
F        4.55293964       8.22625996      14.64400714       0.01274420      -0.00320840      -0.08184758       7.17322159       5.17440701      15.08825397      27.53715574      -9.81757078    -104.26673572      -0.00416668       0.00658723       0.00431816       0.02716295      -0.00498278      -0.11506026     123.96216362      17.48956843
F        1.66237540       6.57543892      14.64324427       0.00648175       0.04846413      -0.10090677       2.26494479       3.68509245      11.44871616       4.12480401      48.11998064    -112.86523515      -0.00108623       0.00049062      -0.00147114       0.00239673       0.04459008      -0.12281204     129.15303866      12.23858582
F        2.45455182       4.86352621      21.06088186      -0.01823374       0.03281729       0.13364381      10.37951469       7.78813553      23.34316063     -11.26692754      28.51027641      93.60335708      -0.00468522       0.00394674       0.00552138      -0.01847872       0.02937521       0.10098735      99.75279022      26.70753692
F        0.19338777       0.59735052      21.18515406       0.03508133      -0.02537443       0.05057326      13.64533901      17.87420845      16.64135170      21.84977670     -14.33519175      68.55958380      -0.00516932       0.00132260      -0.00314140       0.02287214      -0.02867399       0.05227330      68.97034049      27.97529608
F        0.41158970       6.55819439      21.42789865       0.02232848      -0.06422886       0.08936828       7.14893293       8.60387993      10.71019936      19.91988796     -72.10943669      97.81385949       0.00167014      -0.00452427       0.00356262       0.01504290      -0.07922886       0.11323342     133.36900258      15.48684481
F        0.14129028       3.86314849      21.17463375       0.06008808      -0.02773234       0.15440047       9.38350868      10.66330338      12.20063400      71.95147242     -15.75122338     141.35423769       0.00243049       0.00324154       0.00064936       0.07328410       0.00163801       0.15072671     165.96992602      18.72462935
F        2.58669566       8.20544560      21.18656109      -0.05277267      -0.01451118       0.05706158      23.23059845       6.04622507      15.87991619     -30.65385792      -5.58894270      70.48215417      -0.00138499       0.00133465       0.00136410      -0.05107388      -0.00090513       0.05975658      76.70517665      28.78175256
F        1.95106078       6.82595772      19.01842713      -0.04361247       0.06869958       0.13135564      11.92585754       4.66023207      13.25637150     -30.20498223      64.98807107     105.84450109      -0.00253539      -0.00054566       0.00374960      -0.04393592       0.06119065       0.10915595     128.98013210      18.43028015
F        4.38219624       8.03158107      19.13289955       0.00879122       0.08360726       0.13739246      11.32946777       3.32710171      16.22962570       2.51890845      79.03804314     111.73402684      -0.00285902       0.00034761      -0.00099745       0.01009978       0.07681297       0.10165901     128.65935861      20.07055545
Li       6.04860885      13.81306548       5.09175600       0.01482926      -0.00685503       0.07200350       7.98164225      11.34496498      28.27013969      22.99079739       3.58148985      48.92928163      -0.00358855      -0.00047787       0.00784179       0.01790102       0.02239076       0.01407222      31.99365742      31.48992921
Li       1.00712922      13.85054890       5.16348969       0.00584255       0.00389277       0.03195164      17.32439804       4.45134401      27.70306778     -13.13152048       5.56126914      33.07697744       0.00454408      -0.00815663      -0.00462945      -0.00284324      -0.00558939      -0.00654979       8.05300712      32.97588809
Li       3.51505318      15.28079872       5.06460798       0.00523372       0.00627846       0.01206678       6.64663696       5.31495142      34.02766800      -1.29989738      -3.48284136      -2.62452729      -0.00162651       0.00497491      -0.00167025      -0.00560752      -0.00694649      -0.05696028      56.70057880      35.07575631
Li       8.02948217      16.56005081       4.83540646       0.01450060      -0.02364958       0.05594406      14.54776859       6.43457222      29.05055237      17.49580746     -16.89534221      50.51677475       0.00067237      -0.00039030       0.00138543       0.03540350      -0.01706372       0.00333960      38.57555062      33.12062626
Li       5.95977842      10.78131786       5.11229693      -0.01133164      -0.00826710       0.06157465       6.90472555      10.07925034      28.28475380     -14.78191841     -11.05395855      55.38866608       0.00256221      -0.00374440      -0.00142838      -0.01778868      -0.02017187       0.00600970      27.19090893      30.81061213
Li       2.38897797      10.85104873       4.83793959      -0.02231891      -0.00386746       0.06917615      12.00783539      10.27998257      37.16239548     -20.22891910      -2.24846188      48.81489929       0.00071692       0.00169328       0.00056729      -0.03133707       0.00297775      -0.01490571      35.61631462      40.38452414
Li       2.55834543      13.58126812       1.93549910       0.00799624       0.01454039      -0.08927310       6.22056007       2.38724399      15.32083321       0.25042200      10.57582919     -77.70892043       0.00398996       0.00080305      -0.00859873      -0.00202819       0.00910594      -0.06067266      53.07400774      16.70695160
Li       5.83111567      15.13401025       1.88863459      -0.02206774      -0.00935523      -0.07662828      12.41531372       2.18368506       9.56700993     -15.04405678      -6.30770758     -90.72337322       0.00281223      -0.00076237       0.00087389      -0.01815972      -0.00347338      -0.08696897      90.35231217      15.82517533
Li       1.61888963       9.87663192       1.88310239       0.00111042      -0.02226448      -0.08601807       8.39284325       4.95549059       6.77117729      -2.81387637     -23.21640100     -98.19423519       0.00651996       0.00569534       0.00278701      -0.00841621      -0.00919611      -0.09388256      98.94367196      11.86783665
Li       5.23279273      11.18301330       1.90073186      -0.01040442      -0.00059664      -0.08157220      10.71389484       3.07041359      14.40263748     -10.77179852       1.04202590     -92.45282311       0.00129704      -0.00410353       0.00054589       0.00567265       0.00048681      -0.07399129      74.80647289      18.21128630
Li       0.92198948      11.63904076      28.75777869      -0.00751794       0.02148872      -0.19198510       7.21058941      13.19761658       7.84215689       1.95900593      13.52940345    -193.58923439      -0.00511606      -0.00382710      -0.00221145      -0.01263566       0.00377817      -0.18725911     185.35647004      16.96081094
Li       4.18289692      13.07770398      28.53706554      -0.02302120       0.02413448      -0.20482025      10.76050949       7.77511597       7.92318392     -14.57254723      30.59752412    -212.11547062      -0.00583896      -0.00650874      -0.00111258      -0.01637118       0.03461305      -0.21704346     220.06379577      15.46020169
Li       1.78005370      15.87897932      28.69196205      -0.00787709      -0.00849428      -0.18608508       5.22555494       7.55882120       9.93520069      -9.16114719      -7.60419942    -188.38249847       0.00453562      -0.00078702      -0.00314723       0.00296909      -0.01502703      -0.19560787     192.99308239      13.53330762
Li       5.32823560      16.74392059      28.51616523       0.01596059      -0.01386321      -0.18691802      10.61723232       7.33939409       6.40199900       8.37417408      -0.44614455    -202.43005826       0.00422413      -0.00926386       0.01188666       0.00699747      -0.01259635      -0.18190163     193.83678249      14.40756464
Li       3.80155860       9.28508598      28.61974109       0.01384983      -0.02357187      -0.16216514       3.79421496      11.79136562      10.05885983      11.43476676     -13.09465306    -188.62944733      -0.00286103      -0.00672673       0.01102979       0.00404365      -0.03117830      -0.19035158     202.97785609      15.95659837
Li       3.08455761      11.28393593      25.54157128      -0.01413207       0.01517887      -0.16743200       8.72595978      14.92956924       9.47039795     -17.43265032      21.72702967    -167.49055709       0.00196435      -0.00135278       0.00757245      -0.01225145       0.00714034      -0.14486986     153.33910113      19.71605562
Li       6.66561698      13.06462617      26.96031541      -0.01427794       0.04326783      -0.12765737       8.13836098      10.38766479       9.59457207     -22.63824370      32.80926781    -120.62510625       0.00145402       0.00048667      -0.01257146      -0.03506774       0.04267893      -0.14759386     146.09953545      16.31540108
Li       0.20520707      14.01431504      26.96022897       0.02256317       0.00857256      -0.11463500       3.71227002      14.46021271       8.40805340      16.75031163      18.49923417    -110.47841507       0.01071882      -0.00932108      -0.00611036       0.03271620       0.03127426      -0.13003460     132.24629906      17.13400310
Li       3.65778527      15.25837290      25.66763299      -0.00371807      -0.00880221      -0.15827169       4.77031994       2.37639737      31.22109985     -16.92221649      -3.30532461    -154.44230782       0.00884328      -0.00293860       0.00597508      -0.00291811      -0.00339592      -0.09788628     104.52617633      31.67270580
Li       7.51849634      16.72395351      25.60380507      -0.00048137      -0.00985564      -0.17824130       7.12507772       8.96027756      12.63633537      -3.80394168      -7.68272800    -170.09763539       0.00046613       0.00326415       0.00501736       0.00063471      -0.00368591      -0.14424592     149.42509331      17.05081459
Ga       1.02654721      16.67050861       6.86597411      -0.03177176       0.03912115       0.16986817      15.62809563      13.24387741      30.94872475     -49.79537387      60.79197994     147.00623142       0.00253020      -0.01320688       0.00392975      -0.06372706       0.04720081       0.11099862     139.65262775      37.11416476
Ga       6.02511150      16.73580000       6.86589567       0.03124618       0.00795984       0.22406498      17.53401947      10.61344910      48.27818680      57.40422401      17.52765781     177.49529199       0.00093484      -0.00302560       0.00047058       0.07118560       0.03167511       0.10735130     132.52470284      52.44874127
Ga       3.57863255      12.43770587       6.93273864       0.02653155      -0.00877726       0.22900684      10.16193390      17.26575470      31.05599976      18.08728004     -35.33473383     194.06267764      -0.00499250       0.00030735       0.00733400       0.01163701      -0.05392376       0.15697539     160.03155781      36.95735796
Ga       3.55868575       9.47943126       9.04288715       0.01040336      -0.00021122       0.45359904       1.76623321       5.78150654      25.16952515       4.21696175     -11.27061194     425.53506635       0.00564563       0.00798911      -0.00255066       0.01247107      -0.00036021       0.41489083     417.58076506      25.88533164
Ga       6.09793230      13.83276128       9.06696386       0.02287666      -0.00797622       0.48413610       5.04644966       7.89631796      22.96797371      20.82746323      -0.62942565     444.41634738      -0.00203858      -0.01395325       0.00126290       0.01466543      -0.02614679       0.43674746     435.97535293      24.80617479
Ga       1.03672248      13.81616608       9.07751200      -0.02661167      -0.00217894       0.49590579       5.50185299       1.19737232      27.95612907     -23.92997753     -13.86402870     445.78319416      -0.00836049       0.01242575       0.00204264      -0.03435397      -0.00084976       0.42821974     427.17539809      28.51752513
Ga       3.56802686      15.26767116      11.25076758       0.00363099       0.00619415       0.77955025       0.78690749       2.03874254      41.28981400       6.12262217       1.42813409     720.40251136      -0.00240636       0.00240958       0.00526501       0.00391435       0.00240307       0.67396611     668.73097174      41.34760495
Ga       8.59892701      15.27386665      11.26742963       0.00746878       0.00789622       0.77153182       2.74747372       2.98933387      35.62626648      -1.01715313      14.72121767     710.86465171       0.00518232      -0.00923371       0.01147097       0.00084353       0.00094895       0.67671120     665.33230440      35.85687650
Ga       1.04719024      10.90759103      11.26098506       0.00068556      -0.01660586       0.76273674       2.25409126       3.55979085      36.15857697       2.63468877      -9.29495971     709.05111541       0.00130578      -0.00232419       0.00610465       0.00299316      -0.00672853       0.66973460     663.64671023      36.40323786
Ga       6.06845963      10.94343156      11.25877460      -0.00719174      -0.00300258       0.75236917       3.09278560       1.48226678      36.67428207      -7.44108136      -2.69667247     711.24336635       0.00217585      -0.00230255      -0.00619032      -0.00112955      -0.00485796       0.65749532     663.69879052      36.83429656
Ga       1.08874212      16.74022151      13.45817230       0.02038408       0.00640417       0.52390015       7.96821547       1.75438130      15.38075352       6.05096429      -1.00096168     537.00824984       0.00442560       0.00497155       0.00033257      -0.00142709       0.00314874       0.54409277     543.79475146      17.41085553